                               Psi4 1.3.2 release

  ==> Input File <==

--------------------------------------------------------------------------
molecule {
0 1
 C   -1.288949   -0.875807    0.507867
 C   -2.381200   -0.291880   -0.433220
 C    0.108942   -0.307157    0.227550
 C   -3.784694   -0.233808    0.202843
 C    0.535663    0.897857    0.835765
 C    0.978311   -0.951203   -0.684626
 C    1.811296    1.428228    0.561769
 C    2.254229   -0.420755   -0.957456
 C    2.672843    0.767198   -0.331827
 H   -1.282669   -1.971607    0.442654
 H   -1.542754   -0.659132    1.554139
 H   -2.092873    0.725793   -0.730825
 H   -2.400271   -0.866400   -1.368677
 H   -3.789197    0.394993    1.099705
 H   -4.512568    0.182538   -0.501582
 H   -4.129388   -1.233901    0.486784
 H   -0.120963    1.427132    1.524821
 H    0.667815   -1.867741   -1.184386
 H    2.131212    2.351312    1.041782
 H    2.917720   -0.930622   -1.653650
 H    3.659724    1.175443   -0.541145
}
set optking {
  frozen_dihedral = ("
    4 2 1 3
    2 1 3 5
    2 1 3 6
    1 2 4 14
  ")
}
set {
  geom_maxiter 400
  g_convergence GAU_LOOSE
  dynamic_level 1
}
memory 700MB
set_num_threads(8)
psi4_io.set_default_path("/home/daniele/PSI4_sctatch/Psi4-propbenzene")
for _ in range(1):
  try:
    set opt_coordinates both
    optimize('wb97x-d/6-311G')
    break
  except OptimizationConvergenceError:
    break
  else:
    try:
      set opt_coordinates cartesian
      optimize('wb97x-d/6-311G')
      break
    except OptimizationConvergenceError:
      pass
clean()
--------------------------------------------------------------------------

    Molecular point group: c1
  Charge       = 0
  Multiplicity = 1
  Basis Set: 6-311G
    Blend: 6-311G
  Basis Set: (6-311G AUX)
    Blend: CC-PVTZ-JKFIT
  @DF-RKS Final Energy:  -350.06062134881654
    Total Energy =                       -350.0606213488165395
    Molecular point group: c1
  Basis Set: 6-311G
    Blend: 6-311G
  Basis Set: (6-311G AUX)
    Blend: CC-PVTZ-JKFIT
  Basis Set: 6-311G
    Blend: 6-311G
  Basis Set: (6-311G AUX)
    Blend: CC-PVTZ-JKFIT
  @DF-RKS Final Energy:  -350.06281863951074
    Total Energy =                       -350.0628186395106809
  Basis Set: 6-311G
    Blend: 6-311G
  Basis Set: (6-311G AUX)
    Blend: CC-PVTZ-JKFIT
  Charge       = 0
  Multiplicity = 1
  Basis Set: 6-311G
    Blend: 6-311G
  Basis Set: (6-311G AUX)
    Blend: CC-PVTZ-JKFIT

    Orbital Energies [Eh]
    ---------------------

    Doubly Occupied:

       1A    -10.297626     2A    -10.288915     3A    -10.288703
       4A    -10.286596     5A    -10.286270     6A    -10.285969
       7A    -10.284155     8A    -10.280731     9A    -10.270800
      10A     -0.966060    11A     -0.900539    12A     -0.850327
      13A     -0.848607    14A     -0.779251    15A     -0.703641
      16A     -0.700084    17A     -0.672509    18A     -0.607622
      19A     -0.565178    20A     -0.547815    21A     -0.531854
      22A     -0.518086    23A     -0.509756    24A     -0.499689
      25A     -0.472741    26A     -0.460306    27A     -0.445068
      28A     -0.426755    29A     -0.422173    30A     -0.410610
      31A     -0.406592    32A     -0.329023    33A     -0.318057

  @DF-RKS Final Energy:  -350.06287404605268

   => Energetics <=

    Nuclear Repulsion Energy =            411.4541245211755154
    One-Electron Energy =               -1285.4680747307822912
    Two-Electron Energy =                 560.3518892621730174
    DFT Exchange-Correlation Energy =     -36.3892522286400393
    Empirical Dispersion Energy =          -0.0115608699788619
    VV10 Nonlocal Energy =                  0.0000000000000000
    Total Energy =                       -350.0628740460525705

  Dipole Moment: [D]
     X:    -0.3721      Y:    -0.0451      Z:    -0.0500     Total:     0.3782

    Molecular point group: c1
  Basis Set: 6-311G
    Blend: 6-311G
  Basis Set: (6-311G AUX)
    Blend: CC-PVTZ-JKFIT

  -Total Gradient:
     Atom            X                  Y                   Z
    ------   -----------------  -----------------  -----------------
       1        0.000181799986    -0.001798797732    -0.002701614882
       2       -0.000698454669    -0.003448422326    -0.000210391531
       3        0.000414105075     0.002345186725     0.002195887250
       4        0.000261019187     0.003117160847     0.000882087351
       5       -0.000401539405    -0.000159852052    -0.000177362146
       6       -0.000314895368     0.000007330534    -0.000018100159
       7        0.000227633946    -0.000001843523    -0.000029688304
       8        0.000094024509    -0.000039077977     0.000030086942
       9       -0.000083314718     0.000108384447     0.000025127341
      10        0.000108559267     0.000005171038     0.000083216836
      11        0.000089396311    -0.000063004080     0.000018121855
      12       -0.000097294963    -0.000011816247    -0.000035814277
      13       -0.000022374249     0.000021102561    -0.000087883565
      14        0.000118383748    -0.000292086899     0.000050488783
      15       -0.000052594258     0.000024883316    -0.000052268275
      16        0.000078885284     0.000116042810    -0.000094529330
      17        0.000135667093    -0.000008111049    -0.000012037789
      18        0.000115040344     0.000049516376     0.000055423215
      19       -0.000003715301    -0.000028825636    -0.000003902467
      20       -0.000008462664     0.000034167754     0.000031496464
      21       -0.000037205669    -0.000027283881     0.000038548108

  **** Optimization is complete! (in 3 steps) ****
    Final optimized geometry and variables:
    Molecular point group: c1

    Geometry (in Angstrom), charge = 0, multiplicity = 1:

    C           -1.273714693057    -0.861093909826     0.505059806838
    C           -2.351719547614    -0.280339039230    -0.439044478579
    C            0.106675660195    -0.305072715398     0.237066133373
    C           -3.739925144094    -0.227776182261     0.204351469483
    C            0.523061867244     0.886355616723     0.840303392634
    C            0.977057304313    -0.938979402640    -0.655151163051
    C            1.773842415291     1.431186679307     0.559103072154
    C            2.229204791636    -0.397560043755    -0.940195187647
    C            2.631168373667     0.790689844339    -0.333861847006
    H           -1.263194858397    -1.951675227867     0.433097241756
    H           -1.551033240919    -0.623478954111     1.537253750250
    H           -2.057166937991     0.734309210119    -0.722476265578
    H           -2.380270366805    -0.858979420287    -1.366411947707
    H           -3.724977643338     0.401259845412     1.097412945344
    H           -4.481886496130     0.179955906404    -0.484580605633
    H           -4.074968301983    -1.223405165657     0.506044369242
    H           -0.137364614230     1.387114831186     1.538035184557
    H            0.671371292712    -1.865211243530    -1.126241892414
    H            2.080056600570     2.351836145172     1.037886676490
    H            2.889729210137    -0.902952379031    -1.632212628633
    H            3.603478585916     1.211372182135    -0.551465336812

*** Psi4 exiting successfully. Buy a developer a beer!
