                               Psi4 1.3.2 release

  ==> Input File <==

--------------------------------------------------------------------------
molecule {
0 1
 C   -1.358982   -0.761326   -0.114058
 C   -2.412859    0.171639    0.497962
 C    0.070129   -0.248698   -0.112270
 C   -3.817543   -0.435133    0.448020
 C    0.380583    1.106700   -0.265050
 C    1.129059   -1.158031   -0.008124
 C    1.705233    1.538382   -0.303861
 C    2.453843   -0.731709   -0.048161
 C    2.747538    0.621785   -0.196282
 H   -1.651350   -0.981469   -1.148016
 H   -1.388132   -1.718515    0.415371
 H   -2.136121    0.398922    1.531383
 H   -2.425157    1.123812   -0.038179
 H   -3.857916   -1.375293    1.003121
 H   -4.556846    0.240857    0.881177
 H   -4.115494   -0.642986   -0.582333
 H   -0.410568    1.837899   -0.353260
 H    0.910337   -2.212183    0.110787
 H    1.921261    2.592115   -0.419574
 H    3.254431   -1.454210    0.037985
 H    3.775120    0.957396   -0.226055
}
memory 700MB
set_num_threads(8)
psi4_io.set_default_path("/home/daniele/PSI4_sctatch/Psi4-propbenzene")
set freeze_core True
E, wfn = energy('wb97x-d/6-311+G*',return_wfn=True)
oeprop(wfn,"WIBERG_LOWDIN_INDICES")
clean()
--------------------------------------------------------------------------

    Molecular point group: c1

    Geometry (in Angstrom), charge = 0, multiplicity = 1:

       Center              X                  Y                   Z               Mass
    ------------   -----------------  -----------------  -----------------  -----------------
         C           -1.358982018751    -0.761325996751    -0.114058050992    12.000000000000
         C           -2.412859018751     0.171639003249     0.497961949008    12.000000000000
         C            0.070128981249    -0.248697996751    -0.112270050992    12.000000000000
         C           -3.817543018751    -0.435132996751     0.448019949008    12.000000000000
         C            0.380582981249     1.106700003249    -0.265050050992    12.000000000000
         C            1.129058981249    -1.158030996751    -0.008124050992    12.000000000000
         C            1.705232981249     1.538382003249    -0.303861050992    12.000000000000
         C            2.453842981249    -0.731708996751    -0.048161050992    12.000000000000
         C            2.747537981249     0.621785003249    -0.196282050992    12.000000000000
         H           -1.651350018751    -0.981468996751    -1.148016050992     1.007825032230
         H           -1.388132018751    -1.718514996751     0.415370949008     1.007825032230
         H           -2.136121018751     0.398922003249     1.531382949008     1.007825032230
         H           -2.425157018751     1.123812003249    -0.038179050992     1.007825032230
         H           -3.857916018751    -1.375292996751     1.003120949008     1.007825032230
         H           -4.556846018751     0.240857003249     0.881176949008     1.007825032230
         H           -4.115494018751    -0.642985996751    -0.582333050992     1.007825032230
         H           -0.410568018751     1.837899003249    -0.353260050992     1.007825032230
         H            0.910336981249    -2.212182996751     0.110786949008     1.007825032230
         H            1.921260981249     2.592115003249    -0.419574050992     1.007825032230
         H            3.254430981249    -1.454209996751     0.037984949008     1.007825032230
         H            3.775119981249     0.957396003249    -0.226055050992     1.007825032230

  Charge       = 0
  Multiplicity = 1
  Basis Set: 6-311+G*
    Blend: 6-311+G*
  Basis Set: (6-311+G* AUX)
    Blend: HEAVY-AUG-CC-PVTZ-JKFIT

    Orbital Energies [Eh]
    ---------------------

    Doubly Occupied:

       1A    -10.295531     2A    -10.286414     3A    -10.286358
       4A    -10.284388     5A    -10.284110     6A    -10.283662
       7A    -10.283621     8A    -10.280712     9A    -10.270969
      10A     -0.961117    11A     -0.899358    12A     -0.848947
      13A     -0.844570    14A     -0.776726    15A     -0.709911
      16A     -0.691818    17A     -0.666735    18A     -0.606422
      19A     -0.561394    20A     -0.547341    21A     -0.537360
      22A     -0.517779    23A     -0.506041    24A     -0.492814
      25A     -0.476960    26A     -0.453468    27A     -0.446019
      28A     -0.433781    29A     -0.418960    30A     -0.414048
      31A     -0.405614    32A     -0.328412    33A     -0.318268

  @DF-RKS Final Energy:  -350.14370562522259

   => Energetics <=

    Nuclear Repulsion Energy =            410.2059054561602238
    One-Electron Energy =               -1283.2067577936179532
    Two-Electron Energy =                 559.2744947774667708
    DFT Exchange-Correlation Energy =     -36.4058009580068642
    Empirical Dispersion Energy =          -0.0115471072248862
    VV10 Nonlocal Energy =                  0.0000000000000000
    Total Energy =                       -350.1437056252226512

  Dipole Moment: [D]
     X:    -0.4363      Y:    -0.0670      Z:     0.0112     Total:     0.4416

*** Psi4 exiting successfully. Buy a developer a beer!
