                               Psi4 1.3.2 release

  ==> Input File <==

--------------------------------------------------------------------------
molecule {
0 1
 C   -1.548819    0.414150    0.250616
 C   -2.207465   -0.970274    0.011497
 C   -0.026476    0.380033    0.053909
 C   -3.737648   -0.968103    0.203324
 C    0.839100    0.168977    1.153838
 C    0.542375    0.610706   -1.221613
 C    2.236609    0.166661    0.978839
 C    1.940112    0.608396   -1.395870
 C    2.787888    0.384209   -0.296446
 H   -1.782331    0.768574    1.263326
 H   -1.989128    1.158816   -0.425628
 H   -1.962828   -1.315112   -1.002361
 H   -1.751697   -1.706282    0.687549
 H   -4.223253   -0.274295   -0.491199
 H   -4.151566   -1.965725    0.021758
 H   -4.009011   -0.675275    1.223298
 H    0.430362    0.003646    2.149647
 H   -0.098297    0.790938   -2.083722
 H    2.891129   -0.002795    1.831922
 H    2.365356    0.781509   -2.382762
 H    3.867820    0.381726   -0.431637
}
set optking {
  frozen_dihedral = ("
    2 1 3 5
    2 1 3 6
    4 2 1 3
    1 2 4 14
  ")
}
set {
  geom_maxiter 400
  g_convergence GAU_LOOSE
  dynamic_level 1
}
memory 700MB
set_num_threads(8)
psi4_io.set_default_path("/home/daniele/PSI4_sctatch/Psi4-propbenzene")
for _ in range(1):
  try:
    set opt_coordinates both
    optimize('wb97x-d/6-311G')
    break
  except OptimizationConvergenceError:
    break
  else:
    try:
      set opt_coordinates cartesian
      optimize('wb97x-d/6-311G')
      break
    except OptimizationConvergenceError:
      pass
clean()
--------------------------------------------------------------------------

    Molecular point group: c1
  Charge       = 0
  Multiplicity = 1
  Basis Set: 6-311G
    Blend: 6-311G
  Basis Set: (6-311G AUX)
    Blend: CC-PVTZ-JKFIT
  @DF-RKS Final Energy:  -350.06300121374932
    Total Energy =                       -350.0630012137493168
    Molecular point group: c1
  Basis Set: 6-311G
    Blend: 6-311G
  Basis Set: (6-311G AUX)
    Blend: CC-PVTZ-JKFIT
  Basis Set: 6-311G
    Blend: 6-311G
  Basis Set: (6-311G AUX)
    Blend: CC-PVTZ-JKFIT
  @DF-RKS Final Energy:  -350.06511728836563
    Total Energy =                       -350.0651172883655704
  Basis Set: 6-311G
    Blend: 6-311G
  Basis Set: (6-311G AUX)
    Blend: CC-PVTZ-JKFIT
  Charge       = 0
  Multiplicity = 1
  Basis Set: 6-311G
    Blend: 6-311G
  Basis Set: (6-311G AUX)
    Blend: CC-PVTZ-JKFIT

    Orbital Energies [Eh]
    ---------------------

    Doubly Occupied:

       1A    -10.297842     2A    -10.288889     3A    -10.288807
       4A    -10.286756     5A    -10.286408     6A    -10.286390
       7A    -10.284359     8A    -10.280899     9A    -10.270707
      10A     -0.966244    11A     -0.901547    12A     -0.850631
      13A     -0.848797    14A     -0.779493    15A     -0.703718
      16A     -0.699814    17A     -0.672473    18A     -0.607837
      19A     -0.566792    20A     -0.547497    21A     -0.531566
      22A     -0.518091    23A     -0.509891    24A     -0.502106
      25A     -0.465456    26A     -0.464427    27A     -0.447841
      28A     -0.425379    29A     -0.423260    30A     -0.409719
      31A     -0.409013    32A     -0.328989    33A     -0.318404

  @DF-RKS Final Energy:  -350.06517423994740

   => Energetics <=

    Nuclear Repulsion Energy =            410.7813332323217423
    One-Electron Energy =               -1284.1108363819489568
    Two-Electron Energy =                 559.6657256238947866
    DFT Exchange-Correlation Energy =     -36.3898360792783393
    Empirical Dispersion Energy =          -0.0115606349365573
    VV10 Nonlocal Energy =                  0.0000000000000000
    Total Energy =                       -350.0651742399473392

  Dipole Moment: [D]
     X:    -0.3416      Y:    -0.0790      Z:     0.0203     Total:     0.3512

    Molecular point group: c1
  Basis Set: 6-311G
    Blend: 6-311G
  Basis Set: (6-311G AUX)
    Blend: CC-PVTZ-JKFIT

  -Total Gradient:
     Atom            X                  Y                   Z
    ------   -----------------  -----------------  -----------------
       1       -0.000589470502     0.002087738961     0.000618553027
       2        0.000229585895     0.000604755330    -0.000147104897
       3        0.000565790111    -0.007818523926    -0.001582113464
       4       -0.000334379769    -0.000070992876     0.000082495907
       5       -0.000198240062     0.002752908025     0.000388660777
       6       -0.000255941320     0.002505511585     0.000712136608
       7        0.000114192414     0.000050004346    -0.000002502881
       8        0.000184722019     0.000049759612     0.000041131572
       9       -0.000059469913    -0.000059430074    -0.000058326309
      10        0.000076633805     0.000045576883    -0.000046268546
      11        0.000077673562     0.000055923663     0.000070049457
      12       -0.000053711422    -0.000012750924     0.000001942121
      13       -0.000040262810    -0.000034074795    -0.000020901487
      14        0.000106276231    -0.000045847886     0.000068653104
      15       -0.000033621578    -0.000092892355    -0.000035945248
      16        0.000094163810    -0.000053797403    -0.000103188456
      17        0.000108184899     0.000017127761    -0.000053616102
      18        0.000124001779     0.000049713769     0.000032406772
      19       -0.000007887347    -0.000013378171    -0.000045424166
      20       -0.000011613882     0.000027311929     0.000035718327
      21       -0.000047919383     0.000017334344     0.000001255033

  **** Optimization is complete! (in 3 steps) ****
    Final optimized geometry and variables:
    Molecular point group: c1

    Geometry (in Angstrom), charge = 0, multiplicity = 1:

    C           -1.522934708072     0.346102623600     0.271487997599
    C           -2.175215482724    -1.027552502251     0.033906631290
    C           -0.023208269328     0.318299779148     0.078894240139
    C           -3.692871414696    -1.002966560158     0.229528882326
    C            0.835809038072     0.112661296827     1.163135490485
    C            0.539176655201     0.549141044894    -1.180864427155
    C            2.217972768596     0.095490447220     0.987719433612
    C            1.920356280688     0.533632574334    -1.361607327564
    C            2.764639493010     0.302608678899    -0.277129625512
    H           -1.758014981105     0.682540974057     1.285683944006
    H           -1.968455245570     1.075707167994    -0.411647049184
    H           -1.934764718642    -1.363857633823    -0.979220668204
    H           -1.722997559859    -1.755533126563     0.714266194546
    H           -4.165157947451    -0.303744285248    -0.464808528414
    H           -4.130014549263    -1.988913554308     0.061800437297
    H           -3.950884170882    -0.689713646469     1.244084520296
    H            0.417329950978    -0.038170062293     2.150903715053
    H           -0.111538332860     0.741094521135    -2.025540067649
    H            2.866356986683    -0.070864308985     1.837711216298
    H            2.336583362997     0.710216824084    -2.344532364407
    H            3.837339213254     0.293417317571    -0.414674672104

*** Psi4 exiting successfully. Buy a developer a beer!
