                               Psi4 1.3.2 release

  ==> Input File <==

--------------------------------------------------------------------------
molecule {
0 1
 C   -1.337044   -0.798685    0.070692
 C   -2.449889    0.233688    0.272284
 C    0.083838   -0.265102   -0.007260
 C   -3.834449   -0.416188    0.331962
 C    0.389827    1.098110    0.019441
 C    1.138311   -1.173578   -0.164472
 C    1.709316    1.538094   -0.088675
 C    2.454856   -0.739342   -0.273617
 C    2.746496    0.623210   -0.234836
 H   -1.545510   -1.359053   -0.847587
 H   -1.390030   -1.530790    0.884257
 H   -2.268041    0.792610    1.195012
 H   -2.428806    0.959530   -0.545821
 H   -3.898530   -1.125127    1.160698
 H   -4.616549    0.332248    0.470219
 H   -4.050366   -0.960605   -0.590223
 H   -0.396938    1.830081    0.130499
 H    0.920185   -2.234275   -0.198705
 H    1.923056    2.598180   -0.060793
 H    3.251638   -1.461609   -0.391188
 H    3.768705    0.965652   -0.319532
}
memory 700MB
set_num_threads(8)
psi4_io.set_default_path("/home/daniele/PSI4_sctatch/Psi4-propbenzene")
set freeze_core True
E, wfn = energy('wb97x-d/6-311+G*',return_wfn=True)
oeprop(wfn,"WIBERG_LOWDIN_INDICES")
clean()
--------------------------------------------------------------------------

    Molecular point group: c1

    Geometry (in Angstrom), charge = 0, multiplicity = 1:

       Center              X                  Y                   Z               Mass
    ------------   -----------------  -----------------  -----------------  -----------------
         C           -1.337043884454    -0.798684912570     0.070691970687    12.000000000000
         C           -2.449888884454     0.233688087430     0.272283970687    12.000000000000
         C            0.083838115546    -0.265101912570    -0.007260029313    12.000000000000
         C           -3.834448884454    -0.416187912570     0.331961970687    12.000000000000
         C            0.389827115546     1.098110087430     0.019440970687    12.000000000000
         C            1.138311115546    -1.173577912570    -0.164472029313    12.000000000000
         C            1.709316115546     1.538094087430    -0.088675029313    12.000000000000
         C            2.454856115546    -0.739341912570    -0.273617029313    12.000000000000
         C            2.746496115546     0.623210087430    -0.234836029313    12.000000000000
         H           -1.545509884454    -1.359052912570    -0.847587029313     1.007825032230
         H           -1.390029884454    -1.530789912570     0.884256970687     1.007825032230
         H           -2.268040884454     0.792610087430     1.195011970687     1.007825032230
         H           -2.428805884454     0.959530087430    -0.545821029313     1.007825032230
         H           -3.898529884454    -1.125126912570     1.160697970687     1.007825032230
         H           -4.616548884454     0.332248087430     0.470218970687     1.007825032230
         H           -4.050365884454    -0.960604912570    -0.590223029313     1.007825032230
         H           -0.396937884454     1.830081087430     0.130498970687     1.007825032230
         H            0.920185115546    -2.234274912570    -0.198705029313     1.007825032230
         H            1.923056115546     2.598180087430    -0.060793029313     1.007825032230
         H            3.251638115546    -1.461608912570    -0.391188029313     1.007825032230
         H            3.768705115546     0.965652087430    -0.319532029313     1.007825032230

  Charge       = 0
  Multiplicity = 1
  Basis Set: 6-311+G*
    Blend: 6-311+G*
  Basis Set: (6-311+G* AUX)
    Blend: HEAVY-AUG-CC-PVTZ-JKFIT

    Orbital Energies [Eh]
    ---------------------

    Doubly Occupied:

       1A    -10.295676     2A    -10.286052     3A    -10.285674
       4A    -10.284870     5A    -10.283461     6A    -10.283093
       7A    -10.283070     8A    -10.281175     9A    -10.271484
      10A     -0.960917    11A     -0.900023    12A     -0.849178
      13A     -0.844031    14A     -0.776971    15A     -0.712139
      16A     -0.690384    17A     -0.665245    18A     -0.606602
      19A     -0.560118    20A     -0.546380    21A     -0.540589
      22A     -0.518711    23A     -0.505605    24A     -0.487975
      25A     -0.483766    26A     -0.450453    27A     -0.445293
      28A     -0.435251    29A     -0.418145    30A     -0.413732
      31A     -0.407374    32A     -0.327985    33A     -0.317684

  @DF-RKS Final Energy:  -350.14376199790991

   => Energetics <=

    Nuclear Repulsion Energy =            410.3546176548775293
    One-Electron Energy =               -1283.5045995845703146
    Two-Electron Energy =                 559.4246974457128090
    DFT Exchange-Correlation Energy =     -36.4068334737151531
    Empirical Dispersion Energy =          -0.0116440402148891
    VV10 Nonlocal Energy =                  0.0000000000000000
    Total Energy =                       -350.1437619979100191

  Dipole Moment: [D]
     X:    -0.4837      Y:    -0.1141      Z:     0.0100     Total:     0.4971

*** Psi4 exiting successfully. Buy a developer a beer!
