                               Psi4 1.3.2 release

  ==> Input File <==

--------------------------------------------------------------------------
molecule {
0 1
 C   -1.332208   -0.311014    1.136459
 C   -2.485225    0.276539    0.289097
 C    0.026284   -0.090561    0.508948
 C   -3.042771   -0.717833   -0.732529
 C    0.735450    1.091645    0.748805
 C    0.585659   -1.036916   -0.356396
 C    1.965642    1.325038    0.138714
 C    1.815505   -0.807065   -0.970647
 C    2.509000    0.376252   -0.725836
 H   -1.505152   -1.379412    1.292679
 H   -1.338820    0.153921    2.126110
 H   -3.295751    0.584032    0.957009
 H   -2.136270    1.181443   -0.215093
 H   -3.436884   -1.604779   -0.230885
 H   -3.849450   -0.273666   -1.318355
 H   -2.265618   -1.042950   -1.428691
 H    0.320089    1.832515    1.421330
 H    0.055574   -1.962597   -0.543642
 H    2.500117    2.244113    0.339505
 H    2.231989   -1.551336   -1.636337
 H    3.464572    0.555575   -1.199579
}
memory 700MB
set_num_threads(8)
psi4_io.set_default_path("/home/daniele/PSI4_sctatch/Psi4-propbenzene")
set freeze_core True
E, wfn = energy('wb97x-d/6-311+G*',return_wfn=True)
oeprop(wfn,"WIBERG_LOWDIN_INDICES")
clean()
--------------------------------------------------------------------------

    Molecular point group: c1

    Geometry (in Angstrom), charge = 0, multiplicity = 1:

       Center              X                  Y                   Z               Mass
    ------------   -----------------  -----------------  -----------------  -----------------
         C           -1.332208021653    -0.311013957375     1.136458836086    12.000000000000
         C           -2.485225021653     0.276539042625     0.289096836086    12.000000000000
         C            0.026283978347    -0.090560957375     0.508947836086    12.000000000000
         C           -3.042771021653    -0.717832957375    -0.732529163914    12.000000000000
         C            0.735449978347     1.091645042625     0.748804836086    12.000000000000
         C            0.585658978347    -1.036915957375    -0.356396163914    12.000000000000
         C            1.965641978347     1.325038042625     0.138713836086    12.000000000000
         C            1.815504978347    -0.807064957375    -0.970647163914    12.000000000000
         C            2.508999978347     0.376252042625    -0.725836163914    12.000000000000
         H           -1.505152021653    -1.379411957375     1.292678836086     1.007825032230
         H           -1.338820021653     0.153921042625     2.126109836086     1.007825032230
         H           -3.295751021653     0.584032042625     0.957008836086     1.007825032230
         H           -2.136270021653     1.181443042625    -0.215093163914     1.007825032230
         H           -3.436884021653    -1.604778957375    -0.230885163914     1.007825032230
         H           -3.849450021653    -0.273665957375    -1.318355163914     1.007825032230
         H           -2.265618021653    -1.042949957375    -1.428691163914     1.007825032230
         H            0.320088978347     1.832515042625     1.421329836086     1.007825032230
         H            0.055573978347    -1.962596957375    -0.543642163914     1.007825032230
         H            2.500116978347     2.244113042625     0.339504836086     1.007825032230
         H            2.231988978347    -1.551335957375    -1.636337163914     1.007825032230
         H            3.464571978347     0.555575042625    -1.199579163914     1.007825032230

  Charge       = 0
  Multiplicity = 1
  Basis Set: 6-311+G*
    Blend: 6-311+G*
  Basis Set: (6-311+G* AUX)
    Blend: HEAVY-AUG-CC-PVTZ-JKFIT

    Orbital Energies [Eh]
    ---------------------

    Doubly Occupied:

       1A    -10.294405     2A    -10.287300     3A    -10.287137
       4A    -10.285006     5A    -10.284631     6A    -10.284519
       7A    -10.282980     8A    -10.279501     9A    -10.268257
      10A     -0.961679    11A     -0.898036    12A     -0.846169
      13A     -0.844964    14A     -0.777539    15A     -0.703849
      16A     -0.697113    17A     -0.666921    18A     -0.604655
      19A     -0.555040    20A     -0.554085    21A     -0.534051
      22A     -0.518147    23A     -0.506635    24A     -0.486101
      25A     -0.482435    26A     -0.458150    27A     -0.439263
      28A     -0.429558    29A     -0.421526    30A     -0.414249
      31A     -0.403080    32A     -0.328991    33A     -0.318513

  @DF-RKS Final Energy:  -350.14344716677022

   => Energetics <=

    Nuclear Repulsion Energy =            416.4669342892156010
    One-Electron Energy =               -1295.7585854425281013
    Two-Electron Energy =                 565.5640689197034590
    DFT Exchange-Correlation Energy =     -36.4036883257158337
    Empirical Dispersion Energy =          -0.0121766074453508
    VV10 Nonlocal Energy =                  0.0000000000000000
    Total Energy =                       -350.1434471667702155

  Dipole Moment: [D]
     X:    -0.3936      Y:     0.0586      Z:     0.0869     Total:     0.4073

*** Psi4 exiting successfully. Buy a developer a beer!
