                               Psi4 1.3.2 release

  ==> Input File <==

--------------------------------------------------------------------------
molecule {
0 1
 C   -1.143733   -1.462824    0.381142
 C   -2.466162   -0.930521   -0.234096
 C    0.053140   -0.553805    0.208935
 C   -2.616568    0.592874   -0.259639
 C    0.331157    0.458773    1.133286
 C    0.897831   -0.691520   -0.897550
 C    1.414948    1.314844    0.953265
 C    1.983540    0.162323   -1.082926
 C    2.244201    1.170716   -0.157656
 H   -0.924495   -2.446323   -0.040134
 H   -1.297663   -1.616852    1.454128
 H   -2.535909   -1.291053   -1.265865
 H   -3.305074   -1.381911    0.302027
 H   -1.823434    1.056668   -0.846619
 H   -3.575500    0.870893   -0.700999
 H   -2.574157    1.020966    0.744806
 H   -0.305627    0.573854    2.001643
 H    0.701023   -1.474953   -1.619263
 H    1.613609    2.091264    1.680050
 H    2.625028    0.038841   -1.945390
 H    3.087008    1.833967   -0.297342
}
memory 700MB
set_num_threads(8)
psi4_io.set_default_path("/home/daniele/PSI4_sctatch/Psi4-propbenzene")
set freeze_core True
E, wfn = energy('wb97x-d/6-311+G*',return_wfn=True)
oeprop(wfn,"WIBERG_LOWDIN_INDICES")
clean()
--------------------------------------------------------------------------

    Molecular point group: c1

    Geometry (in Angstrom), charge = 0, multiplicity = 1:

       Center              X                  Y                   Z               Mass
    ------------   -----------------  -----------------  -----------------  -----------------
         C           -1.143732919750    -1.462824088901     0.381141970136    12.000000000000
         C           -2.466161919750    -0.930521088901    -0.234096029864    12.000000000000
         C            0.053140080250    -0.553805088901     0.208934970136    12.000000000000
         C           -2.616567919750     0.592873911099    -0.259639029864    12.000000000000
         C            0.331157080250     0.458772911099     1.133285970136    12.000000000000
         C            0.897831080250    -0.691520088901    -0.897550029864    12.000000000000
         C            1.414948080250     1.314843911099     0.953264970136    12.000000000000
         C            1.983540080250     0.162322911099    -1.082926029864    12.000000000000
         C            2.244201080250     1.170715911099    -0.157656029864    12.000000000000
         H           -0.924494919750    -2.446323088901    -0.040134029864     1.007825032230
         H           -1.297662919750    -1.616852088901     1.454127970136     1.007825032230
         H           -2.535908919750    -1.291053088901    -1.265865029864     1.007825032230
         H           -3.305073919750    -1.381911088901     0.302026970136     1.007825032230
         H           -1.823433919750     1.056667911099    -0.846619029864     1.007825032230
         H           -3.575499919750     0.870892911099    -0.700999029864     1.007825032230
         H           -2.574156919750     1.020965911099     0.744805970136     1.007825032230
         H           -0.305626919750     0.573853911099     2.001642970136     1.007825032230
         H            0.701023080250    -1.474953088901    -1.619263029864     1.007825032230
         H            1.613609080250     2.091263911099     1.680049970136     1.007825032230
         H            2.625028080250     0.038840911099    -1.945390029864     1.007825032230
         H            3.087008080250     1.833966911099    -0.297342029864     1.007825032230

  Charge       = 0
  Multiplicity = 1
  Basis Set: 6-311+G*
    Blend: 6-311+G*
  Basis Set: (6-311+G* AUX)
    Blend: HEAVY-AUG-CC-PVTZ-JKFIT

    Orbital Energies [Eh]
    ---------------------

    Doubly Occupied:

       1A    -10.293865     2A    -10.287244     3A    -10.287156
       4A    -10.285203     5A    -10.284423     6A    -10.284402
       7A    -10.283048     8A    -10.279911     9A    -10.264184
      10A     -0.961678    11A     -0.896296    12A     -0.845870
      13A     -0.842561    14A     -0.779302    15A     -0.703871
      16A     -0.699491    17A     -0.661286    18A     -0.601176
      19A     -0.560269    20A     -0.548718    21A     -0.531964
      22A     -0.521513    23A     -0.506239    24A     -0.494971
      25A     -0.471364    26A     -0.453591    27A     -0.444775
      28A     -0.426012    29A     -0.421663    30A     -0.407379
      31A     -0.403556    32A     -0.328962    33A     -0.318730

  @DF-RKS Final Energy:  -350.14199602178758

   => Energetics <=

    Nuclear Repulsion Energy =            421.3334411468281360
    One-Electron Energy =               -1305.5344390882166863
    Two-Electron Energy =                 570.4766872714372994
    DFT Exchange-Correlation Energy =     -36.4049995403562789
    Empirical Dispersion Energy =          -0.0126858114800933
    VV10 Nonlocal Energy =                  0.0000000000000000
    Total Energy =                       -350.1419960217876337

  Dipole Moment: [D]
     X:    -0.3464      Y:    -0.1330      Z:    -0.0361     Total:     0.3728

*** Psi4 exiting successfully. Buy a developer a beer!
