                               Psi4 1.3.2 release

  ==> Input File <==

--------------------------------------------------------------------------
molecule {
0 1
 C   -1.384745   -0.303365    0.670920
 C   -2.361306   -0.461816   -0.502436
 C    0.062500   -0.026220    0.303498
 C   -3.791184   -0.733950   -0.027910
 C    0.840120    0.791277    1.131901
 C    0.647468   -0.518837   -0.867884
 C    2.165859    1.082062    0.821825
 C    1.973828   -0.229403   -1.183372
 C    2.739793    0.569705   -0.339195
 H   -1.429047   -1.214475    1.280404
 H   -1.740561    0.504815    1.316812
 H   -2.332753    0.440732   -1.119480
 H   -2.043961   -1.288067   -1.143285
 H   -4.161527    0.086516    0.591215
 H   -4.473253   -0.850102   -0.871971
 H   -3.836003   -1.648294    0.568376
 H    0.399184    1.203862    2.031077
 H    0.072883   -1.137577   -1.542546
 H    2.746455    1.713789    1.480739
 H    2.405781   -0.625311   -2.092789
 H    3.767937    0.796464   -0.586026
}
memory 700MB
set_num_threads(8)
psi4_io.set_default_path("/home/daniele/PSI4_sctatch/Psi4-propbenzene")
set freeze_core True
E, wfn = energy('wb97x-d/6-311+G*',return_wfn=True)
oeprop(wfn,"WIBERG_LOWDIN_INDICES")
clean()
--------------------------------------------------------------------------

    Molecular point group: c1

    Geometry (in Angstrom), charge = 0, multiplicity = 1:

       Center              X                  Y                   Z               Mass
    ------------   -----------------  -----------------  -----------------  -----------------
         C           -1.384744925799    -0.303364998662     0.670919954093    12.000000000000
         C           -2.361305925799    -0.461815998662    -0.502436045907    12.000000000000
         C            0.062500074201    -0.026219998662     0.303497954093    12.000000000000
         C           -3.791183925799    -0.733949998662    -0.027910045907    12.000000000000
         C            0.840120074201     0.791277001338     1.131900954093    12.000000000000
         C            0.647468074201    -0.518836998662    -0.867884045907    12.000000000000
         C            2.165859074201     1.082062001338     0.821824954093    12.000000000000
         C            1.973828074201    -0.229402998662    -1.183372045907    12.000000000000
         C            2.739793074201     0.569705001338    -0.339195045907    12.000000000000
         H           -1.429046925799    -1.214474998662     1.280403954093     1.007825032230
         H           -1.740560925799     0.504815001338     1.316811954093     1.007825032230
         H           -2.332752925799     0.440732001338    -1.119480045907     1.007825032230
         H           -2.043960925799    -1.288066998662    -1.143285045907     1.007825032230
         H           -4.161526925799     0.086516001338     0.591214954093     1.007825032230
         H           -4.473252925799    -0.850101998662    -0.871971045907     1.007825032230
         H           -3.836002925799    -1.648293998662     0.568375954093     1.007825032230
         H            0.399184074201     1.203862001338     2.031076954093     1.007825032230
         H            0.072883074201    -1.137576998662    -1.542546045907     1.007825032230
         H            2.746455074201     1.713789001338     1.480738954093     1.007825032230
         H            2.405781074201    -0.625310998662    -2.092789045907     1.007825032230
         H            3.767937074201     0.796464001338    -0.586026045907     1.007825032230

  Charge       = 0
  Multiplicity = 1
  Basis Set: 6-311+G*
    Blend: 6-311+G*
  Basis Set: (6-311+G* AUX)
    Blend: HEAVY-AUG-CC-PVTZ-JKFIT

    Orbital Energies [Eh]
    ---------------------

    Doubly Occupied:

       1A    -10.295586     2A    -10.286341     3A    -10.286283
       4A    -10.284403     5A    -10.284065     6A    -10.283665
       7A    -10.283616     8A    -10.280814     9A    -10.271017
      10A     -0.961107    11A     -0.899408    12A     -0.848921
      13A     -0.844532    14A     -0.776731    15A     -0.710016
      16A     -0.691749    17A     -0.666799    18A     -0.606454
      19A     -0.561396    20A     -0.547279    21A     -0.537387
      22A     -0.517884    23A     -0.505980    24A     -0.492714
      25A     -0.476851    26A     -0.453547    27A     -0.445778
      28A     -0.433829    29A     -0.419033    30A     -0.414182
      31A     -0.405654    32A     -0.328328    33A     -0.318309

  @DF-RKS Final Energy:  -350.14356350372549

   => Energetics <=

    Nuclear Repulsion Energy =            410.3637561691247697
    One-Electron Energy =               -1283.5220331686118698
    Two-Electron Energy =                 559.4321727380590801
    DFT Exchange-Correlation Energy =     -36.4059023575486620
    Empirical Dispersion Energy =          -0.0115568847488470
    VV10 Nonlocal Energy =                  0.0000000000000000
    Total Energy =                       -350.1435635037254883

  Dipole Moment: [D]
     X:    -0.4460      Y:    -0.0690      Z:    -0.0004     Total:     0.4513

*** Psi4 exiting successfully. Buy a developer a beer!
