                               Psi4 1.3.2 release

  ==> Input File <==

--------------------------------------------------------------------------
molecule {
0 1
 C   -1.287271   -0.233917    1.377386
 C   -2.578597    0.059943    0.564058
 C   -0.002905   -0.079384    0.596061
 C   -2.495583   -0.254449   -0.932155
 C    0.627909    1.166088    0.501225
 C    0.569435   -1.165359   -0.074143
 C    1.788782    1.326870   -0.251917
 C    1.731101   -1.010849   -0.827237
 C    2.344070    0.237272   -0.920322
 H   -1.335747   -1.262721    1.747175
 H   -1.266415    0.408589    2.260283
 H   -3.409255   -0.486285    1.018000
 H   -2.818913    1.122926    0.669724
 H   -2.279843   -1.310614   -1.111907
 H   -3.443165   -0.020762   -1.421309
 H   -1.710529    0.327875   -1.415106
 H    0.200955    2.015820    1.020364
 H    0.099054   -2.138527   -0.004180
 H    2.260656    2.298545   -0.313630
 H    2.158143   -1.863606   -1.338106
 H    3.246701    0.358497   -1.503706
}
memory 700MB
set_num_threads(8)
psi4_io.set_default_path("/home/daniele/PSI4_sctatch/Psi4-propbenzene")
set freeze_core True
E, wfn = energy('wb97x-d/6-311+G*',return_wfn=True)
oeprop(wfn,"WIBERG_LOWDIN_INDICES")
clean()
--------------------------------------------------------------------------

    Molecular point group: c1

    Geometry (in Angstrom), charge = 0, multiplicity = 1:

       Center              X                  Y                   Z               Mass
    ------------   -----------------  -----------------  -----------------  -----------------
         C           -1.287270992349    -0.233917093046     1.377385971081    12.000000000000
         C           -2.578596992349     0.059942906954     0.564057971081    12.000000000000
         C           -0.002904992349    -0.079384093046     0.596060971081    12.000000000000
         C           -2.495582992349    -0.254449093046    -0.932155028919    12.000000000000
         C            0.627909007651     1.166087906954     0.501224971081    12.000000000000
         C            0.569435007651    -1.165359093046    -0.074143028919    12.000000000000
         C            1.788782007651     1.326869906954    -0.251917028919    12.000000000000
         C            1.731101007651    -1.010849093046    -0.827237028919    12.000000000000
         C            2.344070007651     0.237271906954    -0.920322028919    12.000000000000
         H           -1.335746992349    -1.262721093046     1.747174971081     1.007825032230
         H           -1.266414992349     0.408588906954     2.260282971081     1.007825032230
         H           -3.409254992349    -0.486285093046     1.017999971081     1.007825032230
         H           -2.818912992349     1.122925906954     0.669723971081     1.007825032230
         H           -2.279842992349    -1.310614093046    -1.111907028919     1.007825032230
         H           -3.443164992349    -0.020762093046    -1.421309028919     1.007825032230
         H           -1.710528992349     0.327874906954    -1.415106028919     1.007825032230
         H            0.200955007651     2.015819906954     1.020363971081     1.007825032230
         H            0.099054007651    -2.138527093046    -0.004180028919     1.007825032230
         H            2.260656007651     2.298544906954    -0.313630028919     1.007825032230
         H            2.158143007651    -1.863606093046    -1.338106028919     1.007825032230
         H            3.246701007651     0.358496906954    -1.503706028919     1.007825032230

  Charge       = 0
  Multiplicity = 1
  Basis Set: 6-311+G*
    Blend: 6-311+G*
  Basis Set: (6-311+G* AUX)
    Blend: HEAVY-AUG-CC-PVTZ-JKFIT

    Orbital Energies [Eh]
    ---------------------

    Doubly Occupied:

       1A    -10.293758     2A    -10.287361     3A    -10.287285
       4A    -10.285297     5A    -10.284438     6A    -10.284405
       7A    -10.282937     8A    -10.279886     9A    -10.263826
      10A     -0.961771    11A     -0.896338    12A     -0.845823
      13A     -0.842454    14A     -0.778984    15A     -0.704019
      16A     -0.699465    17A     -0.661155    18A     -0.601361
      19A     -0.560368    20A     -0.548385    21A     -0.531306
      22A     -0.522491    23A     -0.506448    24A     -0.494861
      25A     -0.470539    26A     -0.453704    27A     -0.444594
      28A     -0.425516    29A     -0.422290    30A     -0.407140
      31A     -0.403675    32A     -0.329142    33A     -0.318685

  @DF-RKS Final Energy:  -350.14226751917477

   => Energetics <=

    Nuclear Repulsion Energy =            421.6288677344738858
    One-Electron Energy =               -1306.1276166240456860
    Two-Electron Energy =                 570.7741771871582159
    DFT Exchange-Correlation Energy =     -36.4049930308223537
    Empirical Dispersion Energy =          -0.0127027859389500
    VV10 Nonlocal Energy =                  0.0000000000000000
    Total Energy =                       -350.1422675191748226

  Dipole Moment: [D]
     X:    -0.3624      Y:     0.0136      Z:     0.0765     Total:     0.3706

*** Psi4 exiting successfully. Buy a developer a beer!
