                               Psi4 1.3.2 release

  ==> Input File <==

--------------------------------------------------------------------------
molecule {
0 1
 C   -1.357429   -0.385438    0.999181
 C   -2.491562    0.229468    0.122244
 C    0.046112   -0.095719    0.450419
 C   -3.476337   -0.810323   -0.449796
 C    0.722696    1.099184    0.793136
 C    0.668243   -0.993505   -0.449457
 C    2.000131    1.376722    0.268974
 C    1.945191   -0.714878   -0.974304
 C    2.613186    0.468813   -0.612946
 H   -1.492564   -1.469403    1.109116
 H   -1.434918    0.002357    2.023777
 H   -3.042097    0.967962    0.720480
 H   -2.053886    0.812280   -0.699579
 H   -3.978924   -1.362259    0.351786
 H   -4.248405   -0.321545   -1.053467
 H   -2.959527   -1.532329   -1.091249
 H    0.259609    1.817486    1.468092
 H    0.162758   -1.911449   -0.745666
 H    2.513463    2.295839    0.545718
 H    2.415829   -1.415986   -1.661207
 H    3.600665    0.683200   -1.016969
}
set optking {
  frozen_dihedral = ("
    4 2 1 3
    2 1 3 5
    2 1 3 6
    1 2 4 14
  ")
}
set {
  geom_maxiter 400
  g_convergence GAU_LOOSE
  dynamic_level 1
}
memory 700MB
set_num_threads(8)
psi4_io.set_default_path("/home/daniele/PSI4_sctatch/Psi4-propbenzene")
for _ in range(1):
  try:
    set opt_coordinates both
    optimize('wb97x-d/6-311G')
    break
  except OptimizationConvergenceError:
    break
  else:
    try:
      set opt_coordinates cartesian
      optimize('wb97x-d/6-311G')
      break
    except OptimizationConvergenceError:
      pass
clean()
--------------------------------------------------------------------------

    Molecular point group: c1
  Charge       = 0
  Multiplicity = 1
  Basis Set: 6-311G
    Blend: 6-311G
  Basis Set: (6-311G AUX)
    Blend: CC-PVTZ-JKFIT
  @DF-RKS Final Energy:  -350.05791523775042
    Total Energy =                       -350.0579152377504215
    Molecular point group: c1
  Basis Set: 6-311G
    Blend: 6-311G
  Basis Set: (6-311G AUX)
    Blend: CC-PVTZ-JKFIT
  Basis Set: 6-311G
    Blend: 6-311G
  Basis Set: (6-311G AUX)
    Blend: CC-PVTZ-JKFIT
  @DF-RKS Final Energy:  -350.06016252321297
    Total Energy =                       -350.0601625232130232
  Basis Set: 6-311G
    Blend: 6-311G
  Basis Set: (6-311G AUX)
    Blend: CC-PVTZ-JKFIT
  Charge       = 0
  Multiplicity = 1
  Basis Set: 6-311G
    Blend: 6-311G
  Basis Set: (6-311G AUX)
    Blend: CC-PVTZ-JKFIT

    Orbital Energies [Eh]
    ---------------------

    Doubly Occupied:

       1A    -10.297412     2A    -10.288785     3A    -10.288709
       4A    -10.286451     5A    -10.285888     6A    -10.285760
       7A    -10.283761     8A    -10.280405     9A    -10.270483
      10A     -0.965801    11A     -0.899302    12A     -0.849569
      13A     -0.848403    14A     -0.779173    15A     -0.704771
      16A     -0.699378    17A     -0.671726    18A     -0.607251
      19A     -0.560718    20A     -0.550555    21A     -0.533466
      22A     -0.518814    23A     -0.509545    24A     -0.492181
      25A     -0.480453    26A     -0.460077    27A     -0.440299
      28A     -0.428514    29A     -0.421301    30A     -0.411854
      31A     -0.403176    32A     -0.329063    33A     -0.317669

  @DF-RKS Final Energy:  -350.06021921625637

   => Energetics <=

    Nuclear Repulsion Energy =            413.0539436845680257
    One-Electron Energy =               -1288.6852988939563147
    Two-Electron Energy =                 561.9714668609047976
    DFT Exchange-Correlation Energy =     -36.3886525168482251
    Empirical Dispersion Energy =          -0.0116783509246936
    VV10 Nonlocal Energy =                  0.0000000000000000
    Total Energy =                       -350.0602192162563711

  Dipole Moment: [D]
     X:    -0.3937      Y:     0.0441      Z:     0.0307     Total:     0.3974

    Molecular point group: c1
  Basis Set: 6-311G
    Blend: 6-311G
  Basis Set: (6-311G AUX)
    Blend: CC-PVTZ-JKFIT

  -Total Gradient:
     Atom            X                  Y                   Z
    ------   -----------------  -----------------  -----------------
       1       -0.000951223905    -0.000058866618    -0.000464789092
       2        0.000672026534    -0.000397506617     0.000210084158
       3        0.000767072109     0.000368177504     0.000035268134
       4       -0.000231038244    -0.000059882373     0.000130509422
       5       -0.000447737924    -0.000074093661    -0.000056581166
       6       -0.000288009472     0.000030591316     0.000032330943
       7        0.000237585181    -0.000062336893     0.000021508417
       8        0.000142308053    -0.000076911782     0.000017355237
       9       -0.000069615883     0.000080958848    -0.000035671194
      10        0.000028258319     0.000035498493     0.000016933733
      11        0.000069495329    -0.000043318876     0.000131578088
      12       -0.000125673893     0.000138091353     0.000014426230
      13       -0.000014975689     0.000043658549     0.000040043544
      14        0.000064662750     0.000105645609    -0.000061653744
      15       -0.000002007200     0.000045759722     0.000003786307
      16       -0.000080468195     0.000051626613     0.000034916469
      17        0.000136748927    -0.000035889956    -0.000019079947
      18        0.000103907802     0.000053027229     0.000016462216
      19       -0.000009108447    -0.000032651290    -0.000006069633
      20       -0.000006527733     0.000041689808     0.000010821589
      21       -0.000050995226    -0.000003789579     0.000005348403

  **** Optimization is complete! (in 3 steps) ****
    Final optimized geometry and variables:
    Molecular point group: c1

    Geometry (in Angstrom), charge = 0, multiplicity = 1:

    C           -1.330504229653    -0.377975934833     0.965586201975
    C           -2.446016409322     0.259221279643     0.089510534525
    C            0.061527176805    -0.108006437929     0.440095633821
    C           -3.419020264507    -0.776181799781    -0.482537622413
    C            0.746634237491     1.058785686331     0.795171848969
    C            0.673930841702    -0.993804076779    -0.452678844063
    C            2.007434689394     1.335533421037     0.271100181675
    C            1.934624013119    -0.720888889833    -0.979969154919
    C            2.605209096171     0.446332342465    -0.620284237642
    H           -1.488861886619    -1.458866634696     1.017236163160
    H           -1.404921630950    -0.010264679751     1.991914593282
    H           -3.003603424565     0.994239328006     0.676201466300
    H           -1.984004617210     0.812236605385    -0.731793842561
    H           -3.921751779802    -1.324800186193     0.317460943709
    H           -4.185659748921    -0.303634795905    -1.099590642234
    H           -2.888777056582    -1.502391005417    -1.103644714870
    H            0.288794734216     1.752503824015     1.489777850752
    H            0.159946122596    -1.905357103677    -0.732247166364
    H            2.522882897844     2.241994568077     0.559676411480
    H            2.393160137009    -1.419073410452    -1.667655728212
    H            3.584654468037     0.658687931470    -1.026847891834

*** Psi4 exiting successfully. Buy a developer a beer!
