                               Psi4 1.3.2 release

  ==> Input File <==

--------------------------------------------------------------------------
molecule {
0 1
 C   -1.401139   -0.266289    1.394899
 C   -2.702963    0.024251    0.584037
 C   -0.088743   -0.112632    0.609491
 C   -2.645093   -0.289691   -0.928171
 C    0.547733    1.147966    0.517867
 C    0.492108   -1.216346   -0.060969
 C    1.740131    1.299007   -0.216287
 C    1.683517   -1.063872   -0.796138
 C    2.308786    0.193407   -0.873670
 H   -1.453011   -1.293110    1.781590
 H   -1.377128    0.361048    2.295711
 H   -3.541825   -0.507465    1.052621
 H   -2.946159    1.088869    0.705256
 H   -2.431650   -1.349317   -1.103467
 H   -3.604856   -0.063953   -1.405228
 H   -1.879039    0.305746   -1.436127
 H    0.118881    2.016385    1.016175
 H    0.019996   -2.196767   -0.015549
 H    2.222464    2.272956   -0.275656
 H    2.120693   -1.920332   -1.306104
 H    3.229529    0.310618   -1.442002
}
set optking {
  frozen_dihedral = ("
    4 2 1 3
    2 1 3 5
    2 1 3 6
    1 2 4 14
  ")
}
set {
  geom_maxiter 400
  g_convergence GAU_LOOSE
  dynamic_level 1
}
memory 700MB
set_num_threads(8)
psi4_io.set_default_path("/home/daniele/PSI4_sctatch/Psi4-propbenzene")
for _ in range(1):
  try:
    set opt_coordinates both
    optimize('wb97x-d/6-311G')
    break
  except OptimizationConvergenceError:
    break
  else:
    try:
      set opt_coordinates cartesian
      optimize('wb97x-d/6-311G')
      break
    except OptimizationConvergenceError:
      pass
clean()
--------------------------------------------------------------------------

    Molecular point group: c1
  Charge       = 0
  Multiplicity = 1
  Basis Set: 6-311G
    Blend: 6-311G
  Basis Set: (6-311G AUX)
    Blend: CC-PVTZ-JKFIT
  @DF-RKS Final Energy:  -350.05977978288888
    Total Energy =                       -350.0597797828889384
    Molecular point group: c1
  Basis Set: 6-311G
    Blend: 6-311G
  Basis Set: (6-311G AUX)
    Blend: CC-PVTZ-JKFIT
  Basis Set: 6-311G
    Blend: 6-311G
  Basis Set: (6-311G AUX)
    Blend: CC-PVTZ-JKFIT
  @DF-RKS Final Energy:  -350.06212326309662
    Total Energy =                       -350.0621232630966233
  Basis Set: 6-311G
    Blend: 6-311G
  Basis Set: (6-311G AUX)
    Blend: CC-PVTZ-JKFIT
  Basis Set: 6-311G
    Blend: 6-311G
  Basis Set: (6-311G AUX)
    Blend: CC-PVTZ-JKFIT
  @DF-RKS Final Energy:  -350.06220483206067
    Total Energy =                       -350.0622048320606723
  Basis Set: 6-311G
    Blend: 6-311G
  Basis Set: (6-311G AUX)
    Blend: CC-PVTZ-JKFIT
  Charge       = 0
  Multiplicity = 1
  Basis Set: 6-311G
    Blend: 6-311G
  Basis Set: (6-311G AUX)
    Blend: CC-PVTZ-JKFIT

    Orbital Energies [Eh]
    ---------------------

    Doubly Occupied:

       1A    -10.297120     2A    -10.289097     3A    -10.289000
       4A    -10.287040     5A    -10.286098     6A    -10.286076
       7A    -10.284103     8A    -10.281318     9A    -10.264462
      10A     -0.966246    11A     -0.898972    12A     -0.848859
      13A     -0.845455    14A     -0.781736    15A     -0.706376
      16A     -0.701746    17A     -0.664088    18A     -0.603945
      19A     -0.562799    20A     -0.548286    21A     -0.532413
      22A     -0.524657    23A     -0.509347    24A     -0.497608
      25A     -0.471139    26A     -0.454700    27A     -0.444923
      28A     -0.425507    29A     -0.422229    30A     -0.407191
      31A     -0.402618    32A     -0.329283    33A     -0.318454

  @DF-RKS Final Energy:  -350.06221210233468

   => Energetics <=

    Nuclear Repulsion Energy =            421.6288704396519620
    One-Electron Energy =               -1305.8711746608205431
    Two-Electron Energy =                 570.5837845443230663
    DFT Exchange-Correlation Energy =     -36.3909896397109236
    Empirical Dispersion Energy =          -0.0127027857782905
    VV10 Nonlocal Energy =                  0.0000000000000000
    Total Energy =                       -350.0622121023346835

  Dipole Moment: [D]
     X:    -0.3340      Y:     0.0172      Z:     0.0422     Total:     0.3371

    Molecular point group: c1
  Basis Set: 6-311G
    Blend: 6-311G
  Basis Set: (6-311G AUX)
    Blend: CC-PVTZ-JKFIT

  -Total Gradient:
     Atom            X                  Y                   Z
    ------   -----------------  -----------------  -----------------
       1        0.000953372883     0.008129569601     0.001538151239
       2       -0.002036984459    -0.007655365457     0.000458288927
       3       -0.000722860172    -0.004005377929    -0.001406488325
       4        0.001465215262     0.003711466558    -0.000697846126
       5        0.000653865922    -0.000107875931     0.000712969663
       6       -0.000054203397     0.000037609058    -0.000352800733
       7       -0.000095633845     0.000099533061    -0.000060600194
       8       -0.000052632611    -0.000055639856    -0.000061784755
       9        0.000108135167    -0.000024248872     0.000003004181
      10        0.000055541778     0.000018818827    -0.000049415954
      11        0.000051693362    -0.000042310429    -0.000030156894
      12        0.000011241911     0.000034724574    -0.000026700647
      13       -0.000027495066    -0.000059404564    -0.000110009226
      14       -0.000295650686    -0.000033128895    -0.000039541337
      15        0.000071220743     0.000000658321     0.000013821109
      16        0.000063136695    -0.000034545614    -0.000002303954
      17       -0.000025221951    -0.000021637753     0.000002505496
      18       -0.000038328936     0.000010240763     0.000002278847
      19       -0.000012338836    -0.000022498348     0.000018331129
      20       -0.000030447245     0.000005865237    -0.000002254421
      21       -0.000005574213    -0.000019589083     0.000036558725

  **** Optimization is complete! (in 4 steps) ****
    Final optimized geometry and variables:
    Molecular point group: c1

    Geometry (in Angstrom), charge = 0, multiplicity = 1:

    C           -1.287270915430    -0.233916876599     1.377385924671
    C           -2.578596603068     0.059942972335     0.564058252368
    C           -0.002904507503    -0.079384273735     0.596061428036
    C           -2.495582831887    -0.254448974066    -0.932154987384
    C            0.627908881212     1.166087930838     0.501224650476
    C            0.569434701128    -1.165359110950    -0.074143413749
    C            1.788782158228     1.326870241850    -0.251917241696
    C            1.731100549824    -1.010849442530    -0.827236857501
    C            2.344069712904     0.237271577281    -0.920322039397
    H           -1.335746515521    -1.262720664027     1.747174513641
    H           -1.266414802840     0.408588606797     2.260283375294
    H           -3.409255089072    -0.486285126354     1.017999902632
    H           -2.818913401996     1.122926032422     0.669724146497
    H           -2.279843458301    -1.310613676486    -1.111906856351
    H           -3.443165255840    -0.020761796082    -1.421309266764
    H           -1.710529035302     0.327874657811    -1.415106238597
    H            0.200955321812     2.015820349760     1.020364149117
    H            0.099053533434    -2.138527124342    -0.004180103730
    H            2.260655898997     2.298545146734    -0.313630103812
    H            2.158143084584    -1.863606460328    -1.338105532494
    H            3.246700900367     0.358497344454    -1.503706047837

*** Psi4 exiting successfully. Buy a developer a beer!
