                               Psi4 1.3.2 release

  ==> Input File <==

--------------------------------------------------------------------------
molecule {
0 1
 C   -1.471759    0.124304    0.563310
 C   -2.325555   -0.809012   -0.345778
 C    0.034773    0.225888    0.229021
 C   -3.815188   -0.855497    0.052495
 C    0.955101    0.557644    1.255396
 C    0.535042    0.051536   -1.086426
 C    2.331105    0.681105    0.983679
 C    1.912699    0.175186   -1.356740
 C    2.811825    0.486268   -0.322193
 H   -1.581713   -0.208545    1.604277
 H   -1.892588    1.138362    0.534197
 H   -2.250009   -0.474675   -1.388019
 H   -1.899829   -1.821006   -0.322860
 H   -4.272950    0.137677   -0.008672
 H   -4.374364   -1.522601   -0.612179
 H   -3.938989   -1.225569    1.075914
 H    0.604189    0.720950    2.273716
 H   -0.131105   -0.179767   -1.914618
 H    3.023571    0.928579    1.786216
 H    2.282284    0.030358   -2.370369
 H    3.875689    0.579295   -0.532084
}
set optking {
  frozen_dihedral = ("
    2 1 3 5
    2 1 3 6
    4 2 1 3
    1 2 4 14
  ")
}
set {
  geom_maxiter 400
  g_convergence GAU_LOOSE
  dynamic_level 1
}
memory 700MB
set_num_threads(8)
psi4_io.set_default_path("/home/daniele/PSI4_sctatch/Psi4-propbenzene")
for _ in range(1):
  try:
    set opt_coordinates both
    optimize('wb97x-d/6-311G')
    break
  except OptimizationConvergenceError:
    break
  else:
    try:
      set opt_coordinates cartesian
      optimize('wb97x-d/6-311G')
      break
    except OptimizationConvergenceError:
      pass
clean()
--------------------------------------------------------------------------

    Molecular point group: c1
  Charge       = 0
  Multiplicity = 1
  Basis Set: 6-311G
    Blend: 6-311G
  Basis Set: (6-311G AUX)
    Blend: CC-PVTZ-JKFIT
  @DF-RKS Final Energy:  -350.06059099165140
    Total Energy =                       -350.0605909916514520
    Molecular point group: c1
  Basis Set: 6-311G
    Blend: 6-311G
  Basis Set: (6-311G AUX)
    Blend: CC-PVTZ-JKFIT
  Basis Set: 6-311G
    Blend: 6-311G
  Basis Set: (6-311G AUX)
    Blend: CC-PVTZ-JKFIT
  @DF-RKS Final Energy:  -350.06317594656940
    Total Energy =                       -350.0631759465694017
  Basis Set: 6-311G
    Blend: 6-311G
  Basis Set: (6-311G AUX)
    Blend: CC-PVTZ-JKFIT
  Charge       = 0
  Multiplicity = 1
  Basis Set: 6-311G
    Blend: 6-311G
  Basis Set: (6-311G AUX)
    Blend: CC-PVTZ-JKFIT

    Orbital Energies [Eh]
    ---------------------

    Doubly Occupied:

       1A    -10.298816     2A    -10.288038     3A    -10.287918
       4A    -10.285782     5A    -10.285667     6A    -10.285189
       7A    -10.285098     8A    -10.282196     9A    -10.271985
      10A     -0.965529    11A     -0.902165    12A     -0.852070
      13A     -0.847426    14A     -0.779682    15A     -0.712911
      16A     -0.693669    17A     -0.669026    18A     -0.609183
      19A     -0.562530    20A     -0.546950    21A     -0.541238
      22A     -0.520581    23A     -0.508810    24A     -0.493281
      25A     -0.479512    26A     -0.453713    27A     -0.446645
      28A     -0.434198    29A     -0.417657    30A     -0.413852
      31A     -0.405541    32A     -0.328449    33A     -0.317793

  @DF-RKS Final Energy:  -350.06329974011089

   => Energetics <=

    Nuclear Repulsion Energy =            410.2009529315877785
    One-Electron Energy =               -1282.9388071690825655
    Two-Electron Energy =                 559.0784276725574955
    DFT Exchange-Correlation Energy =     -36.3923140800050220
    Empirical Dispersion Energy =          -0.0115590951686556
    VV10 Nonlocal Energy =                  0.0000000000000000
    Total Energy =                       -350.0632997401108923

  Dipole Moment: [D]
     X:    -0.4432      Y:    -0.0409      Z:     0.0250     Total:     0.4458

    Molecular point group: c1
  Basis Set: 6-311G
    Blend: 6-311G
  Basis Set: (6-311G AUX)
    Blend: CC-PVTZ-JKFIT

  -Total Gradient:
     Atom            X                  Y                   Z
    ------   -----------------  -----------------  -----------------
       1       -0.000402484160    -0.000435422223     0.001120043210
       2       -0.000412874236    -0.000452318611     0.000413358444
       3        0.001425159760    -0.001243007419    -0.000127872655
       4       -0.000294612910     0.000856531186    -0.000667679751
       5       -0.000621361530     0.000959873162    -0.000767070569
       6        0.000155698629     0.000806147751    -0.000067755337
       7        0.000171493781    -0.000212620813    -0.000429899157
       8       -0.000104989728    -0.000053249497     0.000216282686
       9       -0.000312943487     0.000075056129     0.000253739003
      10        0.000051710950     0.000036158881    -0.000237137179
      11        0.000045502892    -0.000252084281    -0.000044511206
      12       -0.000266501564    -0.000021202740     0.000360678414
      13        0.000059084885     0.000114319157     0.000053026935
      14        0.000081693107    -0.000172394663    -0.000099453797
      15       -0.000099365185    -0.000022916153    -0.000034925481
      16        0.000116329975     0.000041123249    -0.000197151879
      17        0.000113610695    -0.000061892552    -0.000192268162
      18        0.000565936484     0.000125268233     0.000250123290
      19       -0.000061847213    -0.000030515316    -0.000105019901
      20        0.000015622055     0.000035038316     0.000166354227
      21       -0.000123952497    -0.000010092933     0.000028086463

  **** Optimization is complete! (in 3 steps) ****
    Final optimized geometry and variables:
    Molecular point group: c1

    Geometry (in Angstrom), charge = 0, multiplicity = 1:

    C           -1.464349694769     0.060610553571     0.535767942245
    C           -2.288937974144    -0.859853208591    -0.373002888095
    C            0.018644212354     0.163415669792     0.224282977200
    C           -3.766419503449    -0.890552017442     0.027262070070
    C            0.913174513673     0.491238015187     1.250066532165
    C            0.532058678732    -0.004923488042    -1.065641737991
    C            2.274509030483     0.640070958860     1.001373216670
    C            1.895101656017     0.141032168055    -1.319079844291
    C            2.772027785658     0.464765055890    -0.287990888034
    H           -1.581270036552    -0.274029836017     1.571178046518
    H           -1.900251440862     1.066248862496     0.495565902136
    H           -2.216822620746    -0.522277466705    -1.409926476032
    H           -1.867838845416    -1.868827130502    -0.342313572194
    H           -4.207623024326     0.106893242563    -0.036308550086
    H           -4.339369114513    -1.552591954606    -0.624277063069
    H           -3.887531408669    -1.244149608422     1.053865010832
    H            0.535991230408     0.626080374075     2.256484101391
    H           -0.127133299089    -0.256658322810    -1.884082647561
    H            2.945490116744     0.889815020332     1.812392704874
    H            2.269911904269     0.001664516299    -2.324294285871
    H            3.829274048780     0.577362818643    -0.485380446693

*** Psi4 exiting successfully. Buy a developer a beer!
