                               Psi4 1.3.2 release

  ==> Input File <==

--------------------------------------------------------------------------
molecule {
0 1
 C   -1.342952   -0.488613    0.731971
 C   -2.373822   -0.233837   -0.403376
 C    0.096780   -0.110268    0.346582
 C   -3.818619   -0.611930   -0.019086
 C    0.778403    0.926862    1.028326
 C    0.751711   -0.754679   -0.731171
 C    2.084624    1.296981    0.653776
 C    2.057765   -0.383610   -1.105363
 C    2.725608    0.641423   -0.412296
 H   -1.361150   -1.548613    1.018138
 H   -1.646855    0.061239    1.632281
 H   -2.331596    0.825211   -0.691939
 H   -2.076341   -0.791652   -1.300970
 H   -4.163214   -0.032880    0.844479
 H   -4.504863   -0.413532   -0.849224
 H   -3.896311   -1.675349    0.231296
 H    0.297829    1.452702    1.852102
 H    0.251582   -1.549830   -1.282136
 H    2.598297    2.093212    1.189344
 H    2.550613   -0.890756   -1.932830
 H    3.734740    0.928400   -0.701620
}
set optking {
  frozen_dihedral = ("
    2 1 3 5
    2 1 3 6
    4 2 1 3
    1 2 4 14
  ")
}
set {
  geom_maxiter 400
  g_convergence GAU_LOOSE
  dynamic_level 1
}
memory 700MB
set_num_threads(8)
psi4_io.set_default_path("/home/daniele/PSI4_sctatch/Psi4-propbenzene")
for _ in range(1):
  try:
    set opt_coordinates both
    optimize('wb97x-d/6-311G')
    break
  except OptimizationConvergenceError:
    break
  else:
    try:
      set opt_coordinates cartesian
      optimize('wb97x-d/6-311G')
      break
    except OptimizationConvergenceError:
      pass
clean()
--------------------------------------------------------------------------

    Molecular point group: c1
  Charge       = 0
  Multiplicity = 1
  Basis Set: 6-311G
    Blend: 6-311G
  Basis Set: (6-311G AUX)
    Blend: CC-PVTZ-JKFIT
  @DF-RKS Final Energy:  -350.06248677596676
    Total Energy =                       -350.0624867759667040
    Molecular point group: c1
  Basis Set: 6-311G
    Blend: 6-311G
  Basis Set: (6-311G AUX)
    Blend: CC-PVTZ-JKFIT
  Basis Set: 6-311G
    Blend: 6-311G
  Basis Set: (6-311G AUX)
    Blend: CC-PVTZ-JKFIT
  @DF-RKS Final Energy:  -350.06469092757965
    Total Energy =                       -350.0646909275795906
  Basis Set: 6-311G
    Blend: 6-311G
  Basis Set: (6-311G AUX)
    Blend: CC-PVTZ-JKFIT
  Charge       = 0
  Multiplicity = 1
  Basis Set: 6-311G
    Blend: 6-311G
  Basis Set: (6-311G AUX)
    Blend: CC-PVTZ-JKFIT

    Orbital Energies [Eh]
    ---------------------

    Doubly Occupied:

       1A    -10.298053     2A    -10.288884     3A    -10.288535
       4A    -10.286569     5A    -10.286220     6A    -10.286074
       7A    -10.284760     8A    -10.281366     9A    -10.271058
      10A     -0.966092    11A     -0.901684    12A     -0.851004
      13A     -0.848360    14A     -0.779488    15A     -0.707455
      16A     -0.696948    17A     -0.671721    18A     -0.608402
      19A     -0.565716    20A     -0.547324    21A     -0.534160
      22A     -0.518685    23A     -0.509583    24A     -0.499975
      25A     -0.470745    26A     -0.459664    27A     -0.447091
      28A     -0.429682    29A     -0.420473    30A     -0.412950
      31A     -0.405721    32A     -0.329000    33A     -0.318295

  @DF-RKS Final Energy:  -350.06475870476999

   => Energetics <=

    Nuclear Repulsion Energy =            411.0046126555735100
    One-Electron Energy =               -1284.5529218213600871
    Two-Electron Energy =                 559.8854757843417929
    DFT Exchange-Correlation Energy =     -36.3903074327806308
    Empirical Dispersion Energy =          -0.0116178905445848
    VV10 Nonlocal Energy =                  0.0000000000000000
    Total Energy =                       -350.0647587047699858

  Dipole Moment: [D]
     X:    -0.3774      Y:    -0.0570      Z:    -0.0366     Total:     0.3834

    Molecular point group: c1
  Basis Set: 6-311G
    Blend: 6-311G
  Basis Set: (6-311G AUX)
    Blend: CC-PVTZ-JKFIT

  -Total Gradient:
     Atom            X                  Y                   Z
    ------   -----------------  -----------------  -----------------
       1       -0.001313619964     0.002253765260    -0.000058246405
       2        0.000264497965    -0.001050333061    -0.000037062282
       3        0.002132328089    -0.002637587088     0.001438726996
       4       -0.000249773624    -0.000213000441    -0.000038497732
       5       -0.000215414827     0.000089496618    -0.000136114784
       6       -0.001018481700     0.001275072867    -0.000770302756
       7       -0.000104568925     0.000089658922    -0.000003375158
       8        0.000285758739     0.000254433871     0.000036524720
       9       -0.000107052973    -0.000188467110    -0.000157043635
      10        0.000078803855     0.000084972218     0.000003396188
      11        0.000117523296    -0.000071535550    -0.000064399446
      12       -0.000011040022    -0.000026841979     0.000031541733
      13       -0.000098077391     0.000040603075     0.000018469681
      14        0.000064335576     0.000000269696    -0.000139004236
      15       -0.000045079388     0.000019553407    -0.000048910204
      16        0.000062651578     0.000133763058    -0.000062677959
      17        0.000109511348    -0.000043143977    -0.000070651163
      18        0.000167715936     0.000055964253     0.000031050584
      19        0.000009137048    -0.000044536571    -0.000039934569
      20       -0.000033295764     0.000037538520     0.000029566746
      21       -0.000039901844    -0.000025567188     0.000061453098

  **** Optimization is complete! (in 3 steps) ****
    Final optimized geometry and variables:
    Molecular point group: c1

    Geometry (in Angstrom), charge = 0, multiplicity = 1:

    C           -1.332903505539    -0.490373933632     0.715602443602
    C           -2.353707536653    -0.231824939999    -0.406102564861
    C            0.086111997990    -0.124136818943     0.335700329334
    C           -3.780410613948    -0.608470691062     0.000156906509
    C            0.770972755688     0.893996639159     1.005136953164
    C            0.727183159082    -0.764169550207    -0.731716535968
    C            2.062214940479     1.259446580708     0.627281747809
    C            2.017008519362    -0.403806361020    -1.112135709480
    C            2.689659314043     0.611218549699    -0.433395889812
    H           -1.376815108015    -1.549802977875     0.992659619978
    H           -1.628244047830     0.073037020177     1.605225273259
    H           -2.311022682417     0.824850862656    -0.685661771832
    H           -2.065622283673    -0.796970058361    -1.296945647337
    H           -4.106460342887    -0.028547281814     0.866864148215
    H           -4.485163952834    -0.420945877469    -0.811890743946
    H           -3.845416356423    -1.666934776649     0.263821248362
    H            0.288332228225     1.405129900290     1.828980383335
    H            0.216496151474    -1.557805614234    -1.263103529964
    H            2.574962265242     2.049731592422     1.159316521922
    H            2.496600108892    -0.913701447789    -1.937113193467
    H            3.691367464064     0.892624059912    -0.728435307412

*** Psi4 exiting successfully. Buy a developer a beer!
