                               Psi4 1.3.2 release

  ==> Input File <==

--------------------------------------------------------------------------
molecule {
0 1
 C   -1.494716    0.234996    0.444602
 C   -2.218199   -0.977291   -0.166345
 C   -0.003826    0.260600    0.178592
 C   -3.720964   -0.969385    0.124011
 C    0.913056    0.324280    1.231879
 C    0.490243    0.275435   -1.131318
 C    2.284803    0.374127    0.988507
 C    1.859226    0.326050   -1.379736
 C    2.762765    0.372866   -0.319270
 H   -1.669723    0.246926    1.524115
 H   -1.948581    1.150874    0.049191
 H   -2.056478   -0.993990   -1.247660
 H   -1.766504   -1.892949    0.226071
 H   -4.193909   -0.074676   -0.288195
 H   -4.213106   -1.840262   -0.312629
 H   -3.911413   -0.981185    1.199816
 H    0.549313    0.328608    2.251955
 H   -0.200939    0.252536   -1.964528
 H    2.977224    0.417247    1.818700
 H    2.220374    0.334537   -2.399583
 H    3.826372    0.412865   -0.511036
}
memory 700MB
set_num_threads(8)
psi4_io.set_default_path("/home/daniele/PSI4_sctatch/Psi4-propbenzene")
set freeze_core True
E, wfn = energy('wb97x-d/6-311+G*',return_wfn=True)
oeprop(wfn,"WIBERG_LOWDIN_INDICES")
clean()
--------------------------------------------------------------------------

    Molecular point group: c1

    Geometry (in Angstrom), charge = 0, multiplicity = 1:

       Center              X                  Y                   Z               Mass
    ------------   -----------------  -----------------  -----------------  -----------------
         C           -1.494716037429     0.234995891168     0.444602081943    12.000000000000
         C           -2.218199037429    -0.977291108832    -0.166344918057    12.000000000000
         C           -0.003826037429     0.260599891168     0.178592081943    12.000000000000
         C           -3.720964037429    -0.969385108832     0.124011081943    12.000000000000
         C            0.913055962571     0.324279891168     1.231879081943    12.000000000000
         C            0.490242962571     0.275434891168    -1.131317918057    12.000000000000
         C            2.284802962571     0.374126891168     0.988507081943    12.000000000000
         C            1.859225962571     0.326049891168    -1.379735918057    12.000000000000
         C            2.762764962571     0.372865891168    -0.319269918057    12.000000000000
         H           -1.669723037429     0.246925891168     1.524115081943     1.007825032230
         H           -1.948581037429     1.150873891168     0.049191081943     1.007825032230
         H           -2.056478037429    -0.993990108832    -1.247659918057     1.007825032230
         H           -1.766504037429    -1.892949108832     0.226071081943     1.007825032230
         H           -4.193909037429    -0.074676108832    -0.288194918057     1.007825032230
         H           -4.213106037429    -1.840262108832    -0.312628918057     1.007825032230
         H           -3.911413037429    -0.981185108832     1.199816081943     1.007825032230
         H            0.549312962571     0.328607891168     2.251955081943     1.007825032230
         H           -0.200939037429     0.252535891168    -1.964527918057     1.007825032230
         H            2.977223962571     0.417246891168     1.818700081943     1.007825032230
         H            2.220373962571     0.334536891168    -2.399582918057     1.007825032230
         H            3.826371962571     0.412864891168    -0.511035918057     1.007825032230

  Charge       = 0
  Multiplicity = 1
  Basis Set: 6-311+G*
    Blend: 6-311+G*
  Basis Set: (6-311+G* AUX)
    Blend: HEAVY-AUG-CC-PVTZ-JKFIT

    Orbital Energies [Eh]
    ---------------------

    Doubly Occupied:

       1A    -10.294867     2A    -10.287094     3A    -10.286757
       4A    -10.284774     5A    -10.284439     6A    -10.284401
       7A    -10.283658     8A    -10.280076     9A    -10.270267
      10A     -0.961505    11A     -0.898887    12A     -0.848187
      13A     -0.845242    14A     -0.776613    15A     -0.705940
      16A     -0.694187    17A     -0.668636    18A     -0.605834
      19A     -0.563159    20A     -0.548099    21A     -0.532173
      22A     -0.516362    23A     -0.506609    24A     -0.497420
      25A     -0.470919    26A     -0.457807    27A     -0.446391
      28A     -0.430626    29A     -0.420403    30A     -0.413487
      31A     -0.405937    32A     -0.328816    33A     -0.318536

  @DF-RKS Final Energy:  -350.14474320991161

   => Energetics <=

    Nuclear Repulsion Energy =            410.5862062793049745
    One-Electron Energy =               -1283.9735951636766913
    Two-Electron Energy =                 559.6582799797436110
    DFT Exchange-Correlation Energy =     -36.4040542919835985
    Empirical Dispersion Energy =          -0.0115800132998825
    VV10 Nonlocal Energy =                  0.0000000000000000
    Total Energy =                       -350.1447432099115531

  Dipole Moment: [D]
     X:    -0.3783      Y:    -0.0736      Z:    -0.0090     Total:     0.3856

*** Psi4 exiting successfully. Buy a developer a beer!
