                               Psi4 1.3.2 release

  ==> Input File <==

--------------------------------------------------------------------------
molecule {
0 1
 C   -1.326655   -0.787812    0.268088
 C   -2.451699    0.232852    0.055167
 C    0.092167   -0.272562    0.096590
 C   -3.837074   -0.389834    0.247258
 C    0.438346    1.067739    0.296003
 C    1.094954   -1.153506   -0.325784
 C    1.748976    1.504948    0.110087
 C    2.405214   -0.722114   -0.510978
 C    2.738571    0.612422   -0.291024
 H   -1.477643   -1.623719   -0.421695
 H   -1.431125   -1.209856    1.275239
 H   -2.342414    1.060778    0.760125
 H   -2.365192    0.661583   -0.947332
 H   -3.948006   -0.787648    1.258667
 H   -4.627057    0.346160    0.088101
 H   -3.998906   -1.211674   -0.454164
 H   -0.312105    1.783049    0.600582
 H    0.843053   -2.190672   -0.510542
 H    1.993433    2.545990    0.273804
 H    3.162080   -1.423967   -0.834800
 H    3.754375    0.952951   -0.437946
}
memory 700MB
set_num_threads(8)
psi4_io.set_default_path("/home/daniele/PSI4_sctatch/Psi4-propbenzene")
set freeze_core True
E, wfn = energy('wb97x-d/6-311+G*',return_wfn=True)
oeprop(wfn,"WIBERG_LOWDIN_INDICES")
clean()
--------------------------------------------------------------------------

    Molecular point group: c1

    Geometry (in Angstrom), charge = 0, multiplicity = 1:

       Center              X                  Y                   Z               Mass
    ------------   -----------------  -----------------  -----------------  -----------------
         C           -1.326654814822    -0.787811889620     0.268087920261    12.000000000000
         C           -2.451698814822     0.232852110380     0.055166920261    12.000000000000
         C            0.092167185178    -0.272561889620     0.096589920261    12.000000000000
         C           -3.837073814822    -0.389833889620     0.247257920261    12.000000000000
         C            0.438346185178     1.067739110380     0.296002920261    12.000000000000
         C            1.094954185178    -1.153505889620    -0.325784079739    12.000000000000
         C            1.748976185178     1.504948110380     0.110086920261    12.000000000000
         C            2.405214185178    -0.722113889620    -0.510978079739    12.000000000000
         C            2.738571185178     0.612422110380    -0.291024079739    12.000000000000
         H           -1.477642814822    -1.623718889620    -0.421695079739     1.007825032230
         H           -1.431124814822    -1.209855889620     1.275238920261     1.007825032230
         H           -2.342413814822     1.060778110380     0.760124920261     1.007825032230
         H           -2.365191814822     0.661583110380    -0.947332079739     1.007825032230
         H           -3.948005814822    -0.787647889620     1.258666920261     1.007825032230
         H           -4.627056814822     0.346160110380     0.088100920261     1.007825032230
         H           -3.998905814822    -1.211673889620    -0.454164079739     1.007825032230
         H           -0.312104814822     1.783049110380     0.600581920261     1.007825032230
         H            0.843053185178    -2.190671889620    -0.510542079739     1.007825032230
         H            1.993433185178     2.545990110380     0.273803920261     1.007825032230
         H            3.162080185178    -1.423966889620    -0.834800079739     1.007825032230
         H            3.754375185178     0.952951110380    -0.437946079739     1.007825032230

  Charge       = 0
  Multiplicity = 1
  Basis Set: 6-311+G*
    Blend: 6-311+G*
  Basis Set: (6-311+G* AUX)
    Blend: HEAVY-AUG-CC-PVTZ-JKFIT

    Orbital Energies [Eh]
    ---------------------

    Doubly Occupied:

       1A    -10.295653     2A    -10.286235     3A    -10.286128
       4A    -10.284520     5A    -10.283905     6A    -10.283503
       7A    -10.283469     8A    -10.280919     9A    -10.271154
      10A     -0.961048    11A     -0.899547    12A     -0.849004
      13A     -0.844395    14A     -0.776800    15A     -0.710597
      16A     -0.691384    17A     -0.666419    18A     -0.606512
      19A     -0.561068    20A     -0.547066    21A     -0.538266
      22A     -0.518106    23A     -0.505861    24A     -0.491863
      25A     -0.478162    26A     -0.452794    27A     -0.445683
      28A     -0.434228    29A     -0.418779    30A     -0.414117
      31A     -0.405977    32A     -0.328218    33A     -0.318189

  @DF-RKS Final Energy:  -350.14349961045258

   => Energetics <=

    Nuclear Repulsion Energy =            410.3356626221430474
    One-Electron Energy =               -1283.4656980338006633
    Two-Electron Energy =                 559.4042997156318506
    DFT Exchange-Correlation Energy =     -36.4061956654935130
    Empirical Dispersion Energy =          -0.0115682489332217
    VV10 Nonlocal Energy =                  0.0000000000000000
    Total Energy =                       -350.1434996104525226

  Dipole Moment: [D]
     X:    -0.4593      Y:    -0.0658      Z:     0.0122     Total:     0.4642

*** Psi4 exiting successfully. Buy a developer a beer!
