                               Psi4 1.3.2 release

  ==> Input File <==

--------------------------------------------------------------------------
molecule {
0 1
 C   -1.384709   -0.311678    1.180379
 C   -2.559575    0.246343    0.329373
 C   -0.015763   -0.076697    0.527049
 C   -3.130956   -0.763752   -0.685942
 C    0.690050    1.132136    0.738927
 C    0.546313   -1.047421   -0.335851
 C    1.935833    1.354559    0.120541
 C    1.791308   -0.823721   -0.954959
 C    2.488251    0.375915   -0.724925
 H   -1.532660   -1.375529    1.407601
 H   -1.390074    0.182933    2.161060
 H   -3.366026    0.548797    1.011414
 H   -2.253212    1.173608   -0.172949
 H   -3.518317   -1.656485   -0.183294
 H   -3.954170   -0.317228   -1.253691
 H   -2.365983   -1.078369   -1.403705
 H    0.274837    1.904417    1.385133
 H    0.018516   -1.980125   -0.529603
 H    2.472063    2.285309    0.296537
 H    2.215075   -1.580012   -1.613156
 H    3.451432    0.547476   -1.201657
}
set optking {
  frozen_dihedral = ("
    4 2 1 3
    2 1 3 5
    2 1 3 6
    1 2 4 14
  ")
}
set {
  geom_maxiter 400
  g_convergence GAU_LOOSE
  dynamic_level 1
}
memory 700MB
set_num_threads(8)
psi4_io.set_default_path("/home/daniele/PSI4_sctatch/Psi4-propbenzene")
for _ in range(1):
  try:
    set opt_coordinates both
    optimize('wb97x-d/6-311G')
    break
  except OptimizationConvergenceError:
    break
  else:
    try:
      set opt_coordinates cartesian
      optimize('wb97x-d/6-311G')
      break
    except OptimizationConvergenceError:
      pass
clean()
--------------------------------------------------------------------------

    Molecular point group: c1
  Charge       = 0
  Multiplicity = 1
  Basis Set: 6-311G
    Blend: 6-311G
  Basis Set: (6-311G AUX)
    Blend: CC-PVTZ-JKFIT
  @DF-RKS Final Energy:  -350.06109491856517
    Total Energy =                       -350.0610949185651180
    Molecular point group: c1
  Basis Set: 6-311G
    Blend: 6-311G
  Basis Set: (6-311G AUX)
    Blend: CC-PVTZ-JKFIT
  Basis Set: 6-311G
    Blend: 6-311G
  Basis Set: (6-311G AUX)
    Blend: CC-PVTZ-JKFIT
  @DF-RKS Final Energy:  -350.06338994903047
    Total Energy =                       -350.0633899490304657
  Basis Set: 6-311G
    Blend: 6-311G
  Basis Set: (6-311G AUX)
    Blend: CC-PVTZ-JKFIT
  Charge       = 0
  Multiplicity = 1
  Basis Set: 6-311G
    Blend: 6-311G
  Basis Set: (6-311G AUX)
    Blend: CC-PVTZ-JKFIT

    Orbital Energies [Eh]
    ---------------------

    Doubly Occupied:

       1A    -10.297783     2A    -10.289074     3A    -10.288898
       4A    -10.286771     5A    -10.286303     6A    -10.286231
       7A    -10.284157     8A    -10.280830     9A    -10.268765
      10A     -0.966183    11A     -0.900653    12A     -0.849177
      13A     -0.847945    14A     -0.780287    15A     -0.706112
      16A     -0.699447    17A     -0.669603    18A     -0.607293
      19A     -0.558146    20A     -0.553858    21A     -0.534959
      22A     -0.520239    23A     -0.509515    24A     -0.488152
      25A     -0.483915    26A     -0.458905    27A     -0.439239
      28A     -0.429637    29A     -0.421209    30A     -0.413868
      31A     -0.402557    32A     -0.329160    33A     -0.318299

  @DF-RKS Final Energy:  -350.06345190875101

   => Energetics <=

    Nuclear Repulsion Energy =            416.4669279521559133
    One-Electron Energy =               -1295.5031888249611711
    Two-Electron Energy =                 565.3747294898573728
    DFT Exchange-Correlation Energy =     -36.3897439183999722
    Empirical Dispersion Energy =          -0.0121766074030683
    VV10 Nonlocal Energy =                  0.0000000000000000
    Total Energy =                       -350.0634519087510057

  Dipole Moment: [D]
     X:    -0.3629      Y:     0.0565      Z:     0.0652     Total:     0.3731

    Molecular point group: c1
  Basis Set: 6-311G
    Blend: 6-311G
  Basis Set: (6-311G AUX)
    Blend: CC-PVTZ-JKFIT

  -Total Gradient:
     Atom            X                  Y                   Z
    ------   -----------------  -----------------  -----------------
       1       -0.002076147402    -0.003303416006    -0.001369522732
       2        0.003607711466     0.001495878383    -0.002185039611
       3        0.000770016634     0.002665411847     0.001183525180
       4       -0.002393754500    -0.001007072605     0.001978517643
       5       -0.000389099283    -0.000219666108     0.000218235995
       6       -0.000143983782     0.000063076235    -0.000143224047
       7        0.000348240918    -0.000052507231    -0.000020738324
       8        0.000017284106    -0.000192659691     0.000054558086
       9       -0.000038769370     0.000259759293     0.000014200089
      10        0.000087266486    -0.000034883036    -0.000040010938
      11        0.000024530422     0.000050170422     0.000128082242
      12       -0.000145742376     0.000058501284     0.000112384845
      13        0.000032299251     0.000033093219     0.000035665059
      14        0.000224776376     0.000001269720    -0.000018534256
      15        0.000032408603     0.000048354716     0.000074027988
      16       -0.000055271551    -0.000023494983    -0.000005682297
      17        0.000125445594    -0.000012437279    -0.000043093895
      18        0.000085209473     0.000037897980    -0.000024955237
      19       -0.000027859263     0.000002308520    -0.000010228453
      20       -0.000012323578     0.000054704119     0.000007030528
      21       -0.000053142606     0.000037769559     0.000003149075

  **** Optimization is complete! (in 3 steps) ****
    Final optimized geometry and variables:
    Molecular point group: c1

    Geometry (in Angstrom), charge = 0, multiplicity = 1:

    C           -1.332208324269    -0.311013960904     1.136458988337
    C           -2.485225097900     0.276539165319     0.289096690827
    C            0.026283963499    -0.090561008847     0.508947743976
    C           -3.042771363313    -0.717832920325    -0.732528984833
    C            0.735450051022     1.091644603154     0.748804812402
    C            0.585659148906    -1.036916266026    -0.356395849889
    C            1.965642469521     1.325038304944     0.138713699871
    C            1.815505262046    -0.807064727842    -0.970647266629
    C            2.508999709783     0.376252220426    -0.725836414196
    H           -1.505151581026    -1.379411803581     1.292678962460
    H           -1.338819622899     0.153921407041     2.126109558023
    H           -3.295750988282     0.584031543066     0.957009344231
    H           -2.136270122252     1.181443332607    -0.215092822960
    H           -3.436884295304    -1.604779018139    -0.230884935662
    H           -3.849449960509    -0.273665892411    -1.318355102978
    H           -2.265617998862    -1.042949787075    -1.428690913766
    H            0.320089169872     1.832515015888     1.421329521720
    H            0.055573726181    -1.962597493767    -0.543642043944
    H            2.500116668400     2.244112616568     0.339505080802
    H            2.231988967905    -1.551335598643    -1.636337088642
    H            3.464571608206     0.555574877147    -1.199579277077

*** Psi4 exiting successfully. Buy a developer a beer!
