                               Psi4 1.3.2 release

  ==> Input File <==

--------------------------------------------------------------------------
molecule {
0 1
 C   -1.301770   -0.780833    0.462776
 C   -2.402501    0.100228   -0.152284
 C    0.103683   -0.279184    0.202519
 C   -3.807462   -0.437276    0.130084
 C    0.486732    1.013883    0.578611
 C    1.037372   -1.077179   -0.465104
 C    1.767168    1.488768    0.307754
 C    2.320224   -0.605938   -0.739788
 C    2.689633    0.679790   -0.353712
 H   -1.399957   -1.798093    0.073509
 H   -1.471564   -0.848459    1.543668
 H   -2.318088    1.118274    0.237186
 H   -2.237941    0.169317   -1.231449
 H   -3.999377   -0.483992    1.204808
 H   -4.571961    0.198575   -0.319916
 H   -3.929395   -1.445052   -0.274003
 H   -0.217509    1.651654    1.097825
 H    0.756351   -2.076563   -0.773520
 H    2.044413    2.489500    0.611451
 H    3.027324   -1.241105   -1.256574
 H    3.683964    1.048385   -0.565966
}
memory 700MB
set_num_threads(8)
psi4_io.set_default_path("/home/daniele/PSI4_sctatch/Psi4-propbenzene")
set freeze_core True
E, wfn = energy('wb97x-d/6-311+G*',return_wfn=True)
oeprop(wfn,"WIBERG_LOWDIN_INDICES")
clean()
--------------------------------------------------------------------------

    Molecular point group: c1

    Geometry (in Angstrom), charge = 0, multiplicity = 1:

       Center              X                  Y                   Z               Mass
    ------------   -----------------  -----------------  -----------------  -----------------
         C           -1.301769988690    -0.780833179539     0.462775946418    12.000000000000
         C           -2.402500988690     0.100227820461    -0.152284053582    12.000000000000
         C            0.103683011310    -0.279184179539     0.202518946418    12.000000000000
         C           -3.807461988690    -0.437276179539     0.130083946418    12.000000000000
         C            0.486732011310     1.013882820461     0.578610946418    12.000000000000
         C            1.037372011310    -1.077179179539    -0.465104053582    12.000000000000
         C            1.767168011310     1.488767820461     0.307753946418    12.000000000000
         C            2.320224011310    -0.605938179539    -0.739788053582    12.000000000000
         C            2.689633011310     0.679789820461    -0.353712053582    12.000000000000
         H           -1.399956988690    -1.798093179539     0.073508946418     1.007825032230
         H           -1.471563988690    -0.848459179539     1.543667946418     1.007825032230
         H           -2.318087988690     1.118273820461     0.237185946418     1.007825032230
         H           -2.237940988690     0.169316820461    -1.231449053582     1.007825032230
         H           -3.999376988690    -0.483992179539     1.204807946418     1.007825032230
         H           -4.571960988690     0.198574820461    -0.319916053582     1.007825032230
         H           -3.929394988690    -1.445052179539    -0.274003053582     1.007825032230
         H           -0.217508988690     1.651653820461     1.097824946418     1.007825032230
         H            0.756351011310    -2.076563179539    -0.773520053582     1.007825032230
         H            2.044413011310     2.489499820461     0.611450946418     1.007825032230
         H            3.027324011310    -1.241105179539    -1.256574053582     1.007825032230
         H            3.683964011310     1.048384820461    -0.565966053582     1.007825032230

  Charge       = 0
  Multiplicity = 1
  Basis Set: 6-311+G*
    Blend: 6-311+G*
  Basis Set: (6-311+G* AUX)
    Blend: HEAVY-AUG-CC-PVTZ-JKFIT

    Orbital Energies [Eh]
    ---------------------

    Doubly Occupied:

       1A    -10.294910     2A    -10.287065     3A    -10.286717
       4A    -10.284730     5A    -10.284433     6A    -10.284353
       7A    -10.283693     8A    -10.280154     9A    -10.270310
      10A     -0.961516    11A     -0.898958    12A     -0.848145
      13A     -0.845208    14A     -0.776611    15A     -0.706086
      16A     -0.694065    17A     -0.668749    18A     -0.605876
      19A     -0.563148    20A     -0.548039    21A     -0.532204
      22A     -0.516441    23A     -0.506571    24A     -0.497379
      25A     -0.470821    26A     -0.457889    27A     -0.446051
      28A     -0.430760    29A     -0.420433    30A     -0.413724
      31A     -0.405900    32A     -0.328814    33A     -0.318533

  @DF-RKS Final Energy:  -350.14473828748152

   => Energetics <=

    Nuclear Repulsion Energy =            410.8862530947537834
    One-Electron Energy =               -1284.5731572962677092
    Two-Electron Energy =                 559.9579896436277977
    DFT Exchange-Correlation Energy =     -36.4042204429997582
    Empirical Dispersion Energy =          -0.0116032865956413
    VV10 Nonlocal Energy =                  0.0000000000000000
    Total Energy =                       -350.1447382874815162

  Dipole Moment: [D]
     X:    -0.4015      Y:    -0.0119      Z:    -0.0062     Total:     0.4017

*** Psi4 exiting successfully. Buy a developer a beer!
