                               Psi4 1.3.2 release

  ==> Input File <==

--------------------------------------------------------------------------
molecule {
0 1
 C   -1.333522   -0.508680    0.811293
 C   -2.428674    0.123607   -0.094377
 C    0.089845   -0.145505    0.366925
 C   -3.722750   -0.709563   -0.181530
 C    0.700330    1.048767    0.818208
 C    0.795338   -0.964474   -0.547072
 C    1.995318    1.399741    0.389912
 C    2.090916   -0.613706   -0.973791
 C    2.692943    0.566906   -0.503154
 H   -1.428519   -1.602721    0.803903
 H   -1.496723   -0.219151    1.857553
 H   -2.644059    1.142683    0.252883
 H   -2.027449    0.248592   -1.109608
 H   -4.178462   -0.834624    0.806490
 H   -4.456885   -0.216300   -0.827370
 H   -3.527744   -1.704276   -0.596258
 H    0.171874    1.709101    1.504390
 H    0.341529   -1.877727   -0.929266
 H    2.457045    2.317235    0.750301
 H    2.627129   -1.256519   -1.669570
 H    3.694753    0.837092   -0.831577
}
set optking {
  frozen_dihedral = ("
    4 2 1 3
    2 1 3 5
    2 1 3 6
    1 2 4 14
  ")
}
set {
  geom_maxiter 400
  g_convergence GAU_LOOSE
  dynamic_level 1
}
memory 700MB
set_num_threads(8)
psi4_io.set_default_path("/home/daniele/PSI4_sctatch/Psi4-propbenzene")
for _ in range(1):
  try:
    set opt_coordinates both
    optimize('wb97x-d/6-311G')
    break
  except OptimizationConvergenceError:
    break
  else:
    try:
      set opt_coordinates cartesian
      optimize('wb97x-d/6-311G')
      break
    except OptimizationConvergenceError:
      pass
clean()
--------------------------------------------------------------------------

    Molecular point group: c1
  Charge       = 0
  Multiplicity = 1
  Basis Set: 6-311G
    Blend: 6-311G
  Basis Set: (6-311G AUX)
    Blend: CC-PVTZ-JKFIT
  @DF-RKS Final Energy:  -350.06066229801922
    Total Energy =                       -350.0606622980192242
    Molecular point group: c1
  Basis Set: 6-311G
    Blend: 6-311G
  Basis Set: (6-311G AUX)
    Blend: CC-PVTZ-JKFIT
  Basis Set: 6-311G
    Blend: 6-311G
  Basis Set: (6-311G AUX)
    Blend: CC-PVTZ-JKFIT
  @DF-RKS Final Energy:  -350.06280924200337
    Total Energy =                       -350.0628092420033113
  Basis Set: 6-311G
    Blend: 6-311G
  Basis Set: (6-311G AUX)
    Blend: CC-PVTZ-JKFIT
  Charge       = 0
  Multiplicity = 1
  Basis Set: 6-311G
    Blend: 6-311G
  Basis Set: (6-311G AUX)
    Blend: CC-PVTZ-JKFIT

    Orbital Energies [Eh]
    ---------------------

    Doubly Occupied:

       1A    -10.297555     2A    -10.288852     3A    -10.288714
       4A    -10.286559     5A    -10.286209     6A    -10.285916
       7A    -10.284071     8A    -10.280738     9A    -10.270793
      10A     -0.966040    11A     -0.900504    12A     -0.850231
      13A     -0.848595    14A     -0.779253    15A     -0.704033
      16A     -0.699570    17A     -0.672480    18A     -0.607547
      19A     -0.564973    20A     -0.547980    21A     -0.532341
      22A     -0.518003    23A     -0.509771    24A     -0.499214
      25A     -0.472092    26A     -0.461189    27A     -0.444613
      28A     -0.427364    29A     -0.421472    30A     -0.411149
      31A     -0.406081    32A     -0.329029    33A     -0.318023

  @DF-RKS Final Energy:  -350.06286520037935

   => Energetics <=

    Nuclear Repulsion Energy =            411.5238533304484463
    One-Electron Energy =               -1285.6097143216745735
    Two-Electron Energy =                 560.4239023129779298
    DFT Exchange-Correlation Energy =     -36.3893428656313773
    Empirical Dispersion Energy =          -0.0115636564997970
    VV10 Nonlocal Energy =                  0.0000000000000000
    Total Energy =                       -350.0628652003793491

  Dipole Moment: [D]
     X:    -0.3851      Y:     0.0077      Z:    -0.0179     Total:     0.3856

    Molecular point group: c1
  Basis Set: 6-311G
    Blend: 6-311G
  Basis Set: (6-311G AUX)
    Blend: CC-PVTZ-JKFIT

  -Total Gradient:
     Atom            X                  Y                   Z
    ------   -----------------  -----------------  -----------------
       1       -0.000451899797     0.002851737621     0.000915314001
       2       -0.001315946055     0.001053350260     0.003244061683
       3        0.001117995389    -0.002555710294    -0.001417580338
       4        0.001128615624    -0.001956140215    -0.002424821672
       5       -0.000416743348    -0.000022840328    -0.000166302325
       6       -0.000420980876     0.000142721232    -0.000024744722
       7        0.000133437015    -0.000008263664    -0.000009845735
       8        0.000162969830     0.000016075383     0.000016038265
       9       -0.000065775955    -0.000013910104    -0.000064776029
      10        0.000070321517     0.000020109443     0.000061511996
      11        0.000112067445    -0.000073752347     0.000041495512
      12       -0.000035519938     0.000065852363    -0.000051553155
      13       -0.000104159962     0.000032153136    -0.000027927599
      14       -0.000141479427     0.000383675159    -0.000145566614
      15       -0.000029076201     0.000031021884    -0.000017789083
      16        0.000024987953     0.000114883662     0.000041177615
      17        0.000123544745    -0.000040876860    -0.000020085748
      18        0.000119292260     0.000035110959     0.000016608317
      19       -0.000007655968    -0.000042430708    -0.000022218865
      20       -0.000014226315     0.000013766126     0.000015524177
      21       -0.000041944022    -0.000041909042     0.000019928742

  **** Optimization is complete! (in 3 steps) ****
    Final optimized geometry and variables:
    Molecular point group: c1

    Geometry (in Angstrom), charge = 0, multiplicity = 1:

    C           -1.315341318560    -0.508871397447     0.798514171744
    C           -2.397764927404     0.126223894138    -0.104995841284
    C            0.089461033703    -0.154610416665     0.366135888270
    C           -3.675966822557    -0.712810312075    -0.183825217710
    C            0.701897444112     1.020931038968     0.812684639105
    C            0.784218540010    -0.965849910073    -0.536681324831
    C            1.973420247594     1.378454726434     0.369068134698
    C            2.056116605356    -0.612956522143    -0.982647423608
    C            2.654533218031     0.561986776325    -0.531610878392
    H           -1.427349682058    -1.597261759397     0.765447190086
    H           -1.478093500775    -0.214717676065     1.838718177179
    H           -2.623500767371     1.137345467649     0.244797621538
    H           -1.987694807932     0.237638786323    -1.112944524495
    H           -4.129035033862    -0.840295850683     0.802524822051
    H           -4.418019469056    -0.242820623683    -0.832032754189
    H           -3.459972744411    -1.705952418782    -0.584154232119
    H            0.178455147920     1.657545668572     1.515604031581
    H            0.325437304521    -1.881727294992    -0.889214439403
    H            2.431986064905     2.290824916369     0.726702937158
    H            2.579569274209    -1.254712765550    -1.678870812911
    H            3.642442499557     0.836504022607    -0.875664934702

*** Psi4 exiting successfully. Buy a developer a beer!
