                               Psi4 1.3.2 release

  ==> Input File <==

--------------------------------------------------------------------------
molecule {
0 1
 C   -1.311521   -0.680847    0.645315
 C   -2.382251   -0.059857   -0.289885
 C    0.110077   -0.221876    0.293955
 C   -3.821154   -0.504055    0.039946
 C    0.633562    0.979198    0.829892
 C    0.901845   -0.958956   -0.618914
 C    1.925647    1.418137    0.481098
 C    2.194294   -0.519933   -0.966121
 C    2.707868    0.667591   -0.414837
 H   -1.366803   -1.776558    0.600577
 H   -1.532266   -0.422473    1.689395
 H   -2.312980    1.035216   -0.238492
 H   -2.144394   -0.318784   -1.330617
 H   -4.100641   -0.217091    1.059363
 H   -4.536556   -0.037239   -0.645343
 H   -3.931479   -1.589886   -0.051688
 H    0.039117    1.576857    1.519684
 H    0.517074   -1.876301   -1.062561
 H    2.319760    2.340174    0.904512
 H    2.796569   -1.099476   -1.663347
 H    3.706464    1.006639   -0.683647
}
set optking {
  frozen_dihedral = ("
    4 2 1 3
    2 1 3 5
    2 1 3 6
    1 2 4 14
  ")
}
set {
  geom_maxiter 400
  g_convergence GAU_LOOSE
  dynamic_level 1
}
memory 700MB
set_num_threads(8)
psi4_io.set_default_path("/home/daniele/PSI4_sctatch/Psi4-propbenzene")
for _ in range(1):
  try:
    set opt_coordinates both
    optimize('wb97x-d/6-311G')
    break
  except OptimizationConvergenceError:
    break
  else:
    try:
      set opt_coordinates cartesian
      optimize('wb97x-d/6-311G')
      break
    except OptimizationConvergenceError:
      pass
clean()
--------------------------------------------------------------------------

    Molecular point group: c1
  Charge       = 0
  Multiplicity = 1
  Basis Set: 6-311G
    Blend: 6-311G
  Basis Set: (6-311G AUX)
    Blend: CC-PVTZ-JKFIT
  @DF-RKS Final Energy:  -350.06325987245617
    Total Energy =                       -350.0632598724561717
    Molecular point group: c1
  Basis Set: 6-311G
    Blend: 6-311G
  Basis Set: (6-311G AUX)
    Blend: CC-PVTZ-JKFIT
  Basis Set: 6-311G
    Blend: 6-311G
  Basis Set: (6-311G AUX)
    Blend: CC-PVTZ-JKFIT
  @DF-RKS Final Energy:  -350.06537602916063
    Total Energy =                       -350.0653760291606886
  Basis Set: 6-311G
    Blend: 6-311G
  Basis Set: (6-311G AUX)
    Blend: CC-PVTZ-JKFIT
  Charge       = 0
  Multiplicity = 1
  Basis Set: 6-311G
    Blend: 6-311G
  Basis Set: (6-311G AUX)
    Blend: CC-PVTZ-JKFIT

    Orbital Energies [Eh]
    ---------------------

    Doubly Occupied:

       1A    -10.297800     2A    -10.288892     3A    -10.288814
       4A    -10.286708     5A    -10.286344     6A    -10.286326
       7A    -10.284383     8A    -10.281039     9A    -10.270782
      10A     -0.966274    11A     -0.901706    12A     -0.850506
      13A     -0.848790    14A     -0.779468    15A     -0.703712
      16A     -0.699790    17A     -0.672649    18A     -0.607849
      19A     -0.566820    20A     -0.547438    21A     -0.531554
      22A     -0.518131    23A     -0.509871    24A     -0.502197
      25A     -0.465396    26A     -0.464470    27A     -0.447420
      28A     -0.425516    29A     -0.423385    30A     -0.409965
      31A     -0.409035    32A     -0.329037    33A     -0.318330

  @DF-RKS Final Energy:  -350.06543324011079

   => Energetics <=

    Nuclear Repulsion Energy =            411.2465173864725330
    One-Electron Energy =               -1285.0408234743124467
    Two-Electron Energy =                 560.1304330366295972
    DFT Exchange-Correlation Energy =     -36.3899457558598840
    Empirical Dispersion Energy =          -0.0116144330405254
    VV10 Nonlocal Energy =                  0.0000000000000000
    Total Energy =                       -350.0654332401107354

  Dipole Moment: [D]
     X:    -0.3743      Y:    -0.0186      Z:    -0.0327     Total:     0.3762

    Molecular point group: c1
  Basis Set: 6-311G
    Blend: 6-311G
  Basis Set: (6-311G AUX)
    Blend: CC-PVTZ-JKFIT

  -Total Gradient:
     Atom            X                  Y                   Z
    ------   -----------------  -----------------  -----------------
       1       -0.000901957099     0.000006693280    -0.000548509935
       2        0.000395405964    -0.000028631077     0.000579918168
       3        0.001130310927    -0.000100383643     0.000444912880
       4       -0.000320012900    -0.000116778765    -0.000017817620
       5       -0.000451251613    -0.000038715375    -0.000278793519
       6       -0.000342537915     0.000069871837    -0.000002826823
       7        0.000153814358     0.000006994745    -0.000044561282
       8        0.000113177399     0.000004430760     0.000008200730
       9       -0.000065933226     0.000050956349    -0.000004184855
      10        0.000090883027     0.000032255251     0.000040027154
      11        0.000101556648    -0.000072389957     0.000005111901
      12       -0.000061498334    -0.000000457975    -0.000011435888
      13       -0.000058546069     0.000035712485    -0.000019023031
      14        0.000084679070    -0.000012879577    -0.000105874726
      15       -0.000063281654     0.000067843770    -0.000062617622
      16        0.000063737039     0.000135057797    -0.000035440635
      17        0.000130657786    -0.000025777600    -0.000006155589
      18        0.000107221744     0.000056815442     0.000010625002
      19        0.000002494049    -0.000041855104     0.000008111062
      20       -0.000013092879     0.000050926859     0.000001694571
      21       -0.000035441306    -0.000021111688     0.000034262976

  **** Optimization is complete! (in 3 steps) ****
    Final optimized geometry and variables:
    Molecular point group: c1

    Geometry (in Angstrom), charge = 0, multiplicity = 1:

    C           -1.298221793351    -0.677212232509     0.639227054620
    C           -2.359206893722    -0.060074976149    -0.289304475998
    C            0.102723264152    -0.225064905412     0.294926538173
    C           -3.779648449767    -0.514419577296     0.054177508933
    C            0.620183925275     0.961068268780     0.825666084260
    C            0.888744086238    -0.950115184676    -0.606258847953
    C            1.889088477987     1.410978426091     0.467952746740
    C            2.158296425875    -0.504022129786    -0.967669707652
    C            2.662339401079     0.679272764535    -0.431519343206
    H           -1.360754950727    -1.767964462693     0.578361427601
    H           -1.530162633063    -0.408096244166     1.674411750725
    H           -2.291141246046     1.030386672888    -0.230319473231
    H           -2.121468897160    -0.326811259253    -1.323521925342
    H           -4.045470342459    -0.227953841936     1.074614544639
    H           -4.512338826573    -0.068551875693    -0.620884758688
    H           -3.871303872378    -1.600643677995    -0.021151995228
    H            0.024896420979     1.532524598231     1.527692174928
    H            0.503221060860    -1.871971922563    -1.024770129235
    H            2.274092365511     2.328861977903     0.892020509599
    H            2.752890799911    -1.079554245843    -1.664661596433
    H            3.648350047621     1.026067638878    -0.709354044726

*** Psi4 exiting successfully. Buy a developer a beer!
