                               Psi4 1.3.2 release

  ==> Input File <==

--------------------------------------------------------------------------
molecule {
0 1
 C   -1.298374   -0.677847    0.636630
 C   -2.360827   -0.058474   -0.288737
 C    0.102017   -0.224306    0.291884
 C   -3.780691   -0.514288    0.055134
 C    0.618721    0.961873    0.823297
 C    0.890530   -0.951041   -0.605710
 C    1.888422    1.411360    0.467950
 C    2.160923   -0.505356   -0.964756
 C    2.663666    0.678653   -0.429018
 H   -1.360548   -1.768437    0.572787
 H   -1.529009   -0.411701    1.672880
 H   -2.293145    1.031855   -0.226744
 H   -2.124271   -0.322162   -1.324011
 H   -4.045420   -0.230878    1.076716
 H   -4.514318   -0.066753   -0.617802
 H   -3.872079   -1.600331   -0.023200
 H    0.022070    1.533817    1.523772
 H    0.506209   -1.873684   -1.023575
 H    2.272649    2.329487    0.892192
 H    2.757274   -1.081938   -1.659376
 H    3.650335    1.025076   -0.704969
}
memory 700MB
set_num_threads(8)
psi4_io.set_default_path("/home/daniele/PSI4_sctatch/Psi4-propbenzene")
set freeze_core True
E, wfn = energy('wb97x-d/6-311+G*',return_wfn=True)
oeprop(wfn,"WIBERG_LOWDIN_INDICES")
clean()
--------------------------------------------------------------------------

    Molecular point group: c1

    Geometry (in Angstrom), charge = 0, multiplicity = 1:

       Center              X                  Y                   Z               Mass
    ------------   -----------------  -----------------  -----------------  -----------------
         C           -1.298373928647    -0.677847041637     0.636630003349    12.000000000000
         C           -2.360826928647    -0.058474041637    -0.288736996651    12.000000000000
         C            0.102017071353    -0.224306041637     0.291884003349    12.000000000000
         C           -3.780690928647    -0.514288041637     0.055134003349    12.000000000000
         C            0.618721071353     0.961872958363     0.823297003349    12.000000000000
         C            0.890530071353    -0.951041041637    -0.605709996651    12.000000000000
         C            1.888422071353     1.411359958363     0.467950003349    12.000000000000
         C            2.160923071353    -0.505356041637    -0.964755996651    12.000000000000
         C            2.663666071353     0.678652958363    -0.429017996651    12.000000000000
         H           -1.360547928647    -1.768437041637     0.572787003349     1.007825032230
         H           -1.529008928647    -0.411701041637     1.672880003349     1.007825032230
         H           -2.293144928647     1.031854958363    -0.226743996651     1.007825032230
         H           -2.124270928647    -0.322162041637    -1.324010996651     1.007825032230
         H           -4.045419928647    -0.230878041637     1.076716003349     1.007825032230
         H           -4.514317928647    -0.066753041637    -0.617801996651     1.007825032230
         H           -3.872078928647    -1.600331041637    -0.023199996651     1.007825032230
         H            0.022070071353     1.533816958363     1.523772003349     1.007825032230
         H            0.506209071353    -1.873684041637    -1.023574996651     1.007825032230
         H            2.272649071353     2.329486958363     0.892192003349     1.007825032230
         H            2.757274071353    -1.081938041637    -1.659375996651     1.007825032230
         H            3.650335071353     1.025075958363    -0.704968996651     1.007825032230

  Charge       = 0
  Multiplicity = 1
  Basis Set: 6-311+G*
    Blend: 6-311+G*
  Basis Set: (6-311+G* AUX)
    Blend: HEAVY-AUG-CC-PVTZ-JKFIT

    Orbital Energies [Eh]
    ---------------------

    Doubly Occupied:

       1A    -10.294395     2A    -10.287140     3A    -10.287065
       4A    -10.284945     5A    -10.284689     6A    -10.284658
       7A    -10.283240     8A    -10.279715     9A    -10.269927
      10A     -0.961769    11A     -0.898924    12A     -0.847483
      13A     -0.845746    14A     -0.776623    15A     -0.701532
      16A     -0.697384    17A     -0.669985    18A     -0.605139
      19A     -0.564458    20A     -0.548356    21A     -0.528689
      22A     -0.515719    23A     -0.506932    24A     -0.500196
      25A     -0.464607    26A     -0.463639    27A     -0.446353
      28A     -0.425830    29A     -0.423607    30A     -0.410818
      31A     -0.409394    32A     -0.328869    33A     -0.318511

  @DF-RKS Final Energy:  -350.14571588752585

   => Energetics <=

    Nuclear Repulsion Energy =            411.2216635409829451
    One-Electron Energy =               -1285.2499969147111187
    Two-Electron Energy =                 560.2978402644016569
    DFT Exchange-Correlation Energy =     -36.4036111887703910
    Empirical Dispersion Energy =          -0.0116115894290192
    VV10 Nonlocal Energy =                  0.0000000000000000
    Total Energy =                       -350.1457158875259665

  Dipole Moment: [D]
     X:    -0.3848      Y:    -0.0174      Z:    -0.0355     Total:     0.3868

*** Psi4 exiting successfully. Buy a developer a beer!
