                               Psi4 1.3.2 release

  ==> Input File <==

--------------------------------------------------------------------------
molecule {
0 1
 C   -1.357946   -0.794868   -0.182926
 C   -2.439226    0.146592    0.426628
 C    0.094335   -0.264982   -0.169566
 C   -3.863579   -0.444187    0.380523
 C    0.398502    1.111313   -0.325014
 C    1.172142   -1.178697   -0.052824
 C    1.734683    1.559104   -0.329378
 C    2.506732   -0.729922   -0.058058
 C    2.789290    0.639965   -0.192750
 H   -1.623942   -1.026016   -1.223049
 H   -1.392435   -1.755499    0.348298
 H   -2.165192    0.382001    1.463641
 H   -2.437322    1.104711   -0.107453
 H   -3.920347   -1.383230    0.941487
 H   -4.585784    0.250828    0.822131
 H   -4.177813   -0.642233   -0.649870
 H   -0.391022    1.849756   -0.445930
 H    0.977511   -2.246014    0.045343
 H    1.951907    2.620113   -0.439991
 H    3.320998   -1.445387    0.042181
 H    3.820738    0.987130   -0.195139
}
set optking {
  frozen_dihedral = ("
    2 1 3 5
    2 1 3 6
    4 2 1 3
    1 2 4 14
  ")
}
set {
  geom_maxiter 400
  g_convergence GAU_LOOSE
  dynamic_level 1
}
memory 700MB
set_num_threads(8)
psi4_io.set_default_path("/home/daniele/PSI4_sctatch/Psi4-propbenzene")
for _ in range(1):
  try:
    set opt_coordinates both
    optimize('wb97x-d/6-311G')
    break
  except OptimizationConvergenceError:
    break
  else:
    try:
      set opt_coordinates cartesian
      optimize('wb97x-d/6-311G')
      break
    except OptimizationConvergenceError:
      pass
clean()
--------------------------------------------------------------------------

    Molecular point group: c1
  Charge       = 0
  Multiplicity = 1
  Basis Set: 6-311G
    Blend: 6-311G
  Basis Set: (6-311G AUX)
    Blend: CC-PVTZ-JKFIT
  @DF-RKS Final Energy:  -350.06070442489829
    Total Energy =                       -350.0607044248982902
    Molecular point group: c1
  Basis Set: 6-311G
    Blend: 6-311G
  Basis Set: (6-311G AUX)
    Blend: CC-PVTZ-JKFIT
  Basis Set: 6-311G
    Blend: 6-311G
  Basis Set: (6-311G AUX)
    Blend: CC-PVTZ-JKFIT
  @DF-RKS Final Energy:  -350.06328024374750
    Total Energy =                       -350.0632802437475561
  Basis Set: 6-311G
    Blend: 6-311G
  Basis Set: (6-311G AUX)
    Blend: CC-PVTZ-JKFIT
  Charge       = 0
  Multiplicity = 1
  Basis Set: 6-311G
    Blend: 6-311G
  Basis Set: (6-311G AUX)
    Blend: CC-PVTZ-JKFIT

    Orbital Energies [Eh]
    ---------------------

    Doubly Occupied:

       1A    -10.298735     2A    -10.288131     3A    -10.288065
       4A    -10.285825     5A    -10.285649     6A    -10.285343
       7A    -10.285231     8A    -10.282071     9A    -10.271837
      10A     -0.965576    11A     -0.902031    12A     -0.851984
      13A     -0.847556    14A     -0.779611    15A     -0.712290
      16A     -0.694038    17A     -0.669384    18A     -0.609100
      19A     -0.563005    20A     -0.546979    21A     -0.540389
      22A     -0.520341    23A     -0.508917    24A     -0.494229
      25A     -0.478154    26A     -0.454419    27A     -0.446788
      28A     -0.433760    29A     -0.418017    30A     -0.413856
      31A     -0.405173    32A     -0.328541    33A     -0.317909

  @DF-RKS Final Energy:  -350.06339923038519

   => Energetics <=

    Nuclear Repulsion Energy =            410.2059018727552484
    One-Electron Energy =               -1282.9493889169791601
    Two-Electron Energy =                 559.0836795551085743
    DFT Exchange-Correlation Energy =     -36.3920446338658508
    Empirical Dispersion Energy =          -0.0115471074040978
    VV10 Nonlocal Energy =                  0.0000000000000000
    Total Energy =                       -350.0633992303853006

  Dipole Moment: [D]
     X:    -0.4264      Y:    -0.0745      Z:    -0.0052     Total:     0.4329

    Molecular point group: c1
  Basis Set: 6-311G
    Blend: 6-311G
  Basis Set: (6-311G AUX)
    Blend: CC-PVTZ-JKFIT

  -Total Gradient:
     Atom            X                  Y                   Z
    ------   -----------------  -----------------  -----------------
       1       -0.000300240754    -0.001175922179     0.000796864232
       2       -0.000365513432    -0.000309909546     0.000290083579
       3        0.001058220359     0.000824492451     0.001077698602
       4       -0.000278349626     0.000458141540    -0.000992261221
       5        0.000158126115    -0.000154275934    -0.000487258446
       6       -0.000468752042     0.000255853080    -0.001260204207
       7       -0.000006070208    -0.000188771376     0.000100970571
       8        0.000053180936     0.000383013766     0.000130041882
       9       -0.000228454503    -0.000219736772    -0.000064706449
      10        0.000018700563     0.000087772080     0.000237563677
      11        0.000043336732     0.000197844117    -0.000071416401
      12        0.000068980406    -0.000054642546    -0.000077473396
      13       -0.000188271340    -0.000295650293     0.000071090495
      14        0.000071756854     0.000225966105    -0.000000935301
      15       -0.000118762421     0.000040200746     0.000040478403
      16        0.000069063384     0.000078184544     0.000183712698
      17        0.000529963926    -0.000134964744    -0.000002257474
      18        0.000063701196     0.000196188385     0.000021765365
      19        0.000036325474    -0.000148773632     0.000001230724
      20       -0.000069347831     0.000084813403    -0.000019125961
      21       -0.000106892882    -0.000053007668    -0.000004142392

  **** Optimization is complete! (in 3 steps) ****
    Final optimized geometry and variables:
    Molecular point group: c1

    Geometry (in Angstrom), charge = 0, multiplicity = 1:

    C           -1.358981553236    -0.761326494387    -0.114058422720
    C           -2.412858926898     0.171639166073     0.497961855086
    C            0.070128917918    -0.248697772035    -0.112270382825
    C           -3.817543312937    -0.435132960301     0.448020463078
    C            0.380582773732     1.106700172310    -0.265050108446
    C            1.129059209732    -1.158030626931    -0.008124028884
    C            1.705232672741     1.538381586457    -0.303861474541
    C            2.453842810751    -0.731709190919    -0.048160712587
    C            2.747538203886     0.621785079658    -0.196281727332
    H           -1.651350005895    -0.981469074691    -1.148015579443
    H           -1.388131986092    -1.718514850308     0.415370706715
    H           -2.136120819793     0.398922172847     1.531382810098
    H           -2.425157056367     1.123811758210    -0.038179082300
    H           -3.857915850902    -1.375292512991     1.003121477857
    H           -4.556845614950     0.240857306064     0.881176632518
    H           -4.115494077168    -0.642986133878    -0.582332986307
    H           -0.410568287274     1.837899331836    -0.353259893952
    H            0.910336604763    -2.212183112184     0.110787257232
    H            1.921260700528     2.592115384244    -0.419573851773
    H            3.254431286125    -1.454210459182     0.037984998903
    H            3.775120305337     0.957396054307    -0.226055146046

*** Psi4 exiting successfully. Buy a developer a beer!
