                               Psi4 1.3.2 release

  ==> Input File <==

--------------------------------------------------------------------------
molecule {
0 1
 C   -1.311297   -0.681406    0.642838
 C   -2.383680   -0.058268   -0.288901
 C    0.109527   -0.221168    0.290450
 C   -3.822018   -0.503632    0.041772
 C    0.632346    0.979952    0.826677
 C    0.903597   -0.959999   -0.618887
 C    1.924865    1.418724    0.479634
 C    2.196662   -0.521259   -0.964063
 C    2.708840    0.667224   -0.413822
 H   -1.366611   -1.776938    0.594936
 H   -1.530431   -0.426162    1.688042
 H   -2.314660    1.036657   -0.234605
 H   -2.147330   -0.314040   -1.330751
 H   -4.100501   -0.219693    1.062289
 H   -4.538309   -0.035270   -0.641407
 H   -3.932412   -1.589251   -0.052350
 H    0.036867    1.577916    1.515288
 H    0.520402   -1.878590   -1.061345
 H    2.317815    2.341486    0.902531
 H    2.800639   -1.102000   -1.658821
 H    3.707919    1.006197   -0.681220
}
set optking {
  frozen_dihedral = ("
    2 1 3 5
    2 1 3 6
    4 2 1 3
    1 2 4 14
  ")
}
set {
  geom_maxiter 400
  g_convergence GAU_LOOSE
  dynamic_level 1
}
memory 700MB
set_num_threads(8)
psi4_io.set_default_path("/home/daniele/PSI4_sctatch/Psi4-propbenzene")
for _ in range(1):
  try:
    set opt_coordinates both
    optimize('wb97x-d/6-311G')
    break
  except OptimizationConvergenceError:
    break
  else:
    try:
      set opt_coordinates cartesian
      optimize('wb97x-d/6-311G')
      break
    except OptimizationConvergenceError:
      pass
clean()
--------------------------------------------------------------------------

    Molecular point group: c1
  Charge       = 0
  Multiplicity = 1
  Basis Set: 6-311G
    Blend: 6-311G
  Basis Set: (6-311G AUX)
    Blend: CC-PVTZ-JKFIT
  @DF-RKS Final Energy:  -350.06327447286657
    Total Energy =                       -350.0632744728665102
    Molecular point group: c1
  Basis Set: 6-311G
    Blend: 6-311G
  Basis Set: (6-311G AUX)
    Blend: CC-PVTZ-JKFIT
  Basis Set: 6-311G
    Blend: 6-311G
  Basis Set: (6-311G AUX)
    Blend: CC-PVTZ-JKFIT
  @DF-RKS Final Energy:  -350.06537458679890
    Total Energy =                       -350.0653745867988960
  Basis Set: 6-311G
    Blend: 6-311G
  Basis Set: (6-311G AUX)
    Blend: CC-PVTZ-JKFIT
  Charge       = 0
  Multiplicity = 1
  Basis Set: 6-311G
    Blend: 6-311G
  Basis Set: (6-311G AUX)
    Blend: CC-PVTZ-JKFIT

    Orbital Energies [Eh]
    ---------------------

    Doubly Occupied:

       1A    -10.297800     2A    -10.288893     3A    -10.288813
       4A    -10.286708     5A    -10.286345     6A    -10.286327
       7A    -10.284384     8A    -10.281036     9A    -10.270781
      10A     -0.966273    11A     -0.901699    12A     -0.850514
      13A     -0.848791    14A     -0.779473    15A     -0.703725
      16A     -0.699781    17A     -0.672637    18A     -0.607849
      19A     -0.566817    20A     -0.547442    21A     -0.531558
      22A     -0.518129    23A     -0.509874    24A     -0.502195
      25A     -0.465449    26A     -0.464421    27A     -0.447441
      28A     -0.425529    29A     -0.423360    30A     -0.409977
      31A     -0.409009    32A     -0.329037    33A     -0.318333

  @DF-RKS Final Energy:  -350.06543124902913

   => Energetics <=

    Nuclear Repulsion Energy =            411.2216698284744325
    One-Electron Energy =               -1284.9911354883029162
    Two-Electron Energy =                 560.1055880791684558
    DFT Exchange-Correlation Energy =     -36.3899420784199918
    Empirical Dispersion Energy =          -0.0116115899491587
    VV10 Nonlocal Energy =                  0.0000000000000000
    Total Energy =                       -350.0654312490291886

  Dipole Moment: [D]
     X:    -0.3729      Y:    -0.0202      Z:    -0.0298     Total:     0.3746

    Molecular point group: c1
  Basis Set: 6-311G
    Blend: 6-311G
  Basis Set: (6-311G AUX)
    Blend: CC-PVTZ-JKFIT

  -Total Gradient:
     Atom            X                  Y                   Z
    ------   -----------------  -----------------  -----------------
       1       -0.000842223781    -0.000077984195    -0.000438822310
       2        0.000394800058    -0.000026202457     0.000592256972
       3        0.000956367356     0.000144940207     0.000086166298
       4       -0.000318155240    -0.000106140044    -0.000023602791
       5       -0.000398182269    -0.000117068387    -0.000160531425
       6       -0.000285942757    -0.000016968091     0.000119595622
       7        0.000157497561     0.000007591273    -0.000046614398
       8        0.000115567283     0.000003038535     0.000012503747
       9       -0.000065848248     0.000050895570    -0.000004893648
      10        0.000088962936     0.000030320600     0.000038937539
      11        0.000100929208    -0.000073837740     0.000004987220
      12       -0.000060757145     0.000001149694    -0.000009538151
      13       -0.000056697768     0.000035496946    -0.000018414522
      14        0.000085077068    -0.000020878369    -0.000100634350
      15       -0.000062285942     0.000068220276    -0.000060580166
      16        0.000061012125     0.000132144877    -0.000033905865
      17        0.000130270527    -0.000026115502    -0.000005163135
      18        0.000108006374     0.000057497814     0.000009193762
      19        0.000001078790    -0.000043540617     0.000011724588
      20       -0.000013953279     0.000051682192     0.000000241614
      21       -0.000036689041    -0.000020817420     0.000033885303

  **** Optimization is complete! (in 3 steps) ****
    Final optimized geometry and variables:
    Molecular point group: c1

    Geometry (in Angstrom), charge = 0, multiplicity = 1:

    C           -1.298373570590    -0.677846608702     0.636630305850
    C           -2.360827270939    -0.058473673331    -0.288737450464
    C            0.102017471412    -0.224306007203     0.291883982179
    C           -3.780691060465    -0.514287700499     0.055133770235
    C            0.618720982580     0.961872666782     0.823297160228
    C            0.890529902564    -0.951040972975    -0.605710015401
    C            1.888422310277     1.411359801458     0.467949720895
    C            2.160923059075    -0.505356469186    -0.964755706434
    C            2.663665920640     0.678652774313    -0.429017712748
    H           -1.360548461404    -1.768437387260     0.572787042115
    H           -1.529009305828    -0.411701302214     1.672879655435
    H           -2.293144831556     1.031854895418    -0.226744368280
    H           -2.124270790556    -0.322162368884    -1.324010558307
    H           -4.045420174094    -0.230878472793     1.076716266967
    H           -4.514318037635    -0.066753305412    -0.617802229641
    H           -3.872078648934    -1.600331124880    -0.023199512695
    H            0.022070303155     1.533817010077     1.523771673117
    H            0.506208952884    -1.873683910715    -1.023575214766
    H            2.272648851838     2.329486985948     0.892192023427
    H            2.757273534459    -1.081938285315    -1.659376462494
    H            3.650335244998     1.025075559054    -0.704968562872

*** Psi4 exiting successfully. Buy a developer a beer!
