                               Psi4 1.3.2 release

  ==> Input File <==

--------------------------------------------------------------------------
molecule {
0 1
 C   -1.399915   -0.274666    1.316984
 C   -2.639506    0.171841    0.492198
 C   -0.064933   -0.084665    0.580032
 C   -2.830848   -0.581927   -0.841918
 C    0.623079    1.150698    0.645887
 C    0.484514   -1.125073   -0.207356
 C    1.838850    1.333708   -0.041568
 C    1.698246   -0.940293   -0.897140
 C    2.377734    0.288020   -0.812450
 H   -1.512719   -1.326354    1.612254
 H   -1.374258    0.280321    2.264180
 H   -3.537328    0.052532    1.113669
 H   -2.567434    1.250739    0.298396
 H   -2.956495   -1.657000   -0.674156
 H   -3.725098   -0.222715   -1.362120
 H   -1.978898   -0.434358   -1.513704
 H    0.217698    1.974162    1.232381
 H   -0.029930   -2.081460   -0.288810
 H    2.361961    2.286065    0.023297
 H    2.110752   -1.749041   -1.497654
 H    3.316760    0.429943   -1.344122
}
set optking {
  frozen_dihedral = ("
    4 2 1 3
    2 1 3 5
    2 1 3 6
    1 2 4 14
  ")
}
set {
  geom_maxiter 400
  g_convergence GAU_LOOSE
  dynamic_level 1
}
memory 700MB
set_num_threads(8)
psi4_io.set_default_path("/home/daniele/PSI4_sctatch/Psi4-propbenzene")
for _ in range(1):
  try:
    set opt_coordinates both
    optimize('wb97x-d/6-311G')
    break
  except OptimizationConvergenceError:
    break
  else:
    try:
      set opt_coordinates cartesian
      optimize('wb97x-d/6-311G')
      break
    except OptimizationConvergenceError:
      pass
clean()
--------------------------------------------------------------------------

    Molecular point group: c1
  Charge       = 0
  Multiplicity = 1
  Basis Set: 6-311G
    Blend: 6-311G
  Basis Set: (6-311G AUX)
    Blend: CC-PVTZ-JKFIT
  @DF-RKS Final Energy:  -350.06336526981954
    Total Energy =                       -350.0633652698195988
    Molecular point group: c1
  Basis Set: 6-311G
    Blend: 6-311G
  Basis Set: (6-311G AUX)
    Blend: CC-PVTZ-JKFIT
  Basis Set: 6-311G
    Blend: 6-311G
  Basis Set: (6-311G AUX)
    Blend: CC-PVTZ-JKFIT
  @DF-RKS Final Energy:  -350.06565472519276
    Total Energy =                       -350.0656547251927009
  Basis Set: 6-311G
    Blend: 6-311G
  Basis Set: (6-311G AUX)
    Blend: CC-PVTZ-JKFIT
  Charge       = 0
  Multiplicity = 1
  Basis Set: 6-311G
    Blend: 6-311G
  Basis Set: (6-311G AUX)
    Blend: CC-PVTZ-JKFIT

    Orbital Energies [Eh]
    ---------------------

    Doubly Occupied:

       1A    -10.297523     2A    -10.289083     3A    -10.289009
       4A    -10.287027     5A    -10.286468     6A    -10.286443
       7A    -10.284461     8A    -10.281453     9A    -10.266120
      10A     -0.966406    11A     -0.900968    12A     -0.849131
      13A     -0.846634    14A     -0.781513    15A     -0.706960
      16A     -0.700199    17A     -0.666411    18A     -0.605881
      19A     -0.560558    20A     -0.551924    21A     -0.534838
      22A     -0.521844    23A     -0.509310    24A     -0.494401
      25A     -0.476814    26A     -0.456162    27A     -0.441959
      28A     -0.428563    29A     -0.420471    30A     -0.411632
      31A     -0.404348    32A     -0.329032    33A     -0.318793

  @DF-RKS Final Energy:  -350.06570595468969

   => Energetics <=

    Nuclear Repulsion Energy =            419.6934072991722360
    One-Electron Energy =               -1301.9687564468347318
    Two-Electron Energy =                 568.6132747819052611
    DFT Exchange-Correlation Energy =     -36.3910717990897936
    Empirical Dispersion Energy =          -0.0125597898426915
    VV10 Nonlocal Energy =                  0.0000000000000000
    Total Energy =                       -350.0657059546896903

  Dipole Moment: [D]
     X:    -0.3361      Y:     0.0358      Z:     0.0603     Total:     0.3434

    Molecular point group: c1
  Basis Set: 6-311G
    Blend: 6-311G
  Basis Set: (6-311G AUX)
    Blend: CC-PVTZ-JKFIT

  -Total Gradient:
     Atom            X                  Y                   Z
    ------   -----------------  -----------------  -----------------
       1       -0.000546811071     0.002985188738     0.000246692674
       2       -0.000436895069    -0.002520445613     0.000605450464
       3        0.000691186535    -0.001254488996    -0.000317111559
       4        0.000865822091     0.000387197544    -0.000670480844
       5       -0.000181126689    -0.000200129990     0.000431363249
       6       -0.000476270822     0.000223688296    -0.000524365126
       7        0.000263662734    -0.000002796734    -0.000013466814
       8        0.000037029514    -0.000098561382    -0.000000561039
       9       -0.000025973678     0.000152846235    -0.000016930277
      10        0.000092190227    -0.000060236512     0.000002669720
      11        0.000053316383     0.000013076888     0.000053000980
      12       -0.000058168710     0.000018580740     0.000077602287
      13       -0.000005577278     0.000055539852     0.000034457458
      14       -0.000452463479     0.000180320862     0.000030636415
      15        0.000025889401     0.000072516271     0.000059807092
      16        0.000006172213     0.000021128355     0.000010762608
      17        0.000130767966    -0.000015769807    -0.000046690120
      18        0.000068405808     0.000032256474    -0.000051058319
      19       -0.000009795326    -0.000002723370     0.000000326391
      20       -0.000028099183     0.000030986201    -0.000006653798
      21       -0.000043633457     0.000019216180     0.000017746246

  **** Optimization is complete! (in 3 steps) ****
    Final optimized geometry and variables:
    Molecular point group: c1

    Geometry (in Angstrom), charge = 0, multiplicity = 1:

    C           -1.295229460566    -0.288822382617     1.292209488543
    C           -2.533491004919     0.150108291543     0.484432044990
    C            0.010982439263    -0.080262675208     0.558718975488
    C           -2.710219694424    -0.593524132552    -0.841049307911
    C            0.675438556400     1.148816413445     0.633180332431
    C            0.566881345401    -1.088350737483    -0.236047378394
    C            1.860143191269     1.367277803215    -0.066609102881
    C            1.751012048837    -0.874732774037    -0.938874123108
    C            2.401331853124     0.355009472010    -0.856830381075
    H           -1.399944530587    -1.347531213215     1.550846324046
    H           -1.275000932716     0.263442730620     2.235464319551
    H           -3.420815439295     0.006470709826     1.108367078556
    H           -2.460317735215     1.225073190123     0.288630957949
    H           -2.820298679360    -1.668612922144    -0.675277655438
    H           -3.602786948173    -0.244972906579    -1.363765894970
    H           -1.853894087920    -0.439640286984    -1.499218966797
    H            0.261104468763     1.938589197716     1.248319585617
    H            0.068330187570    -2.047606260884    -0.300644710572
    H            2.360961622005     2.323534307673     0.007045209355
    H            2.166233648060    -1.667339092897    -1.547071439233
    H            3.321958639274     0.521260864028    -1.399547253499

*** Psi4 exiting successfully. Buy a developer a beer!
