                               Psi4 1.3.2 release

  ==> Input File <==

--------------------------------------------------------------------------
molecule {
0 1
 C   -1.332904   -0.490374    0.715602
 C   -2.353708   -0.231825   -0.406103
 C    0.086112   -0.124137    0.335700
 C   -3.780411   -0.608471    0.000157
 C    0.770973    0.893997    1.005137
 C    0.727183   -0.764170   -0.731717
 C    2.062215    1.259447    0.627282
 C    2.017009   -0.403806   -1.112136
 C    2.689659    0.611219   -0.433396
 H   -1.376815   -1.549803    0.992660
 H   -1.628244    0.073037    1.605225
 H   -2.311023    0.824851   -0.685662
 H   -2.065622   -0.796970   -1.296946
 H   -4.106460   -0.028547    0.866864
 H   -4.485164   -0.420946   -0.811891
 H   -3.845416   -1.666935    0.263821
 H    0.288332    1.405130    1.828980
 H    0.216496   -1.557806   -1.263104
 H    2.574962    2.049732    1.159317
 H    2.496600   -0.913701   -1.937113
 H    3.691367    0.892624   -0.728435
}
memory 700MB
set_num_threads(8)
psi4_io.set_default_path("/home/daniele/PSI4_sctatch/Psi4-propbenzene")
set freeze_core True
E, wfn = energy('wb97x-d/6-311+G*',return_wfn=True)
oeprop(wfn,"WIBERG_LOWDIN_INDICES")
clean()
--------------------------------------------------------------------------

    Molecular point group: c1

    Geometry (in Angstrom), charge = 0, multiplicity = 1:

       Center              X                  Y                   Z               Mass
    ------------   -----------------  -----------------  -----------------  -----------------
         C           -1.332903893306    -0.490374057513     0.715602176300    12.000000000000
         C           -2.353707893306    -0.231825057513    -0.406102823700    12.000000000000
         C            0.086112106694    -0.124137057513     0.335700176300    12.000000000000
         C           -3.780410893306    -0.608471057513     0.000157176300    12.000000000000
         C            0.770973106694     0.893996942487     1.005137176300    12.000000000000
         C            0.727183106694    -0.764170057513    -0.731716823700    12.000000000000
         C            2.062215106694     1.259446942487     0.627282176300    12.000000000000
         C            2.017009106694    -0.403806057513    -1.112135823700    12.000000000000
         C            2.689659106694     0.611218942487    -0.433395823700    12.000000000000
         H           -1.376814893306    -1.549803057513     0.992660176300     1.007825032230
         H           -1.628243893306     0.073036942487     1.605225176300     1.007825032230
         H           -2.311022893306     0.824850942487    -0.685661823700     1.007825032230
         H           -2.065621893306    -0.796970057513    -1.296945823700     1.007825032230
         H           -4.106459893306    -0.028547057513     0.866864176300     1.007825032230
         H           -4.485163893306    -0.420946057513    -0.811890823700     1.007825032230
         H           -3.845415893306    -1.666935057513     0.263821176300     1.007825032230
         H            0.288332106694     1.405129942487     1.828980176300     1.007825032230
         H            0.216496106694    -1.557806057513    -1.263103823700     1.007825032230
         H            2.574962106694     2.049731942487     1.159317176300     1.007825032230
         H            2.496600106694    -0.913701057513    -1.937112823700     1.007825032230
         H            3.691367106694     0.892623942487    -0.728434823700     1.007825032230

  Charge       = 0
  Multiplicity = 1
  Basis Set: 6-311+G*
    Blend: 6-311+G*
  Basis Set: (6-311+G* AUX)
    Blend: HEAVY-AUG-CC-PVTZ-JKFIT

    Orbital Energies [Eh]
    ---------------------

    Doubly Occupied:

       1A    -10.294750     2A    -10.287145     3A    -10.286786
       4A    -10.284805     5A    -10.284523     6A    -10.284456
       7A    -10.283572     8A    -10.280052     9A    -10.270206
      10A     -0.961590    11A     -0.898941    12A     -0.847971
      13A     -0.845325    14A     -0.776624    15A     -0.705170
      16A     -0.694645    17A     -0.669058    18A     -0.605699
      19A     -0.563497    20A     -0.548126    21A     -0.531246
      22A     -0.516203    23A     -0.506658    24A     -0.498163
      25A     -0.469804    26A     -0.458834    27A     -0.446089
      28A     -0.429843    29A     -0.420948    30A     -0.413351
      31A     -0.406350    32A     -0.328849    33A     -0.318513

  @DF-RKS Final Energy:  -350.14500927775009

   => Energetics <=

    Nuclear Repulsion Energy =            411.0045751231994586
    One-Electron Energy =               -1284.8114877872942543
    Two-Electron Energy =                 560.0774599634177093
    DFT Exchange-Correlation Energy =     -36.4039386867495836
    Empirical Dispersion Energy =          -0.0116178903233653
    VV10 Nonlocal Energy =                  0.0000000000000000
    Total Energy =                       -350.1450092777500913

  Dipole Moment: [D]
     X:    -0.3925      Y:    -0.0505      Z:    -0.0428     Total:     0.3980

*** Psi4 exiting successfully. Buy a developer a beer!
