                               Psi4 1.3.2 release

  ==> Input File <==

--------------------------------------------------------------------------
molecule {
0 1
 C   -1.464350    0.060611    0.535768
 C   -2.288938   -0.859853   -0.373003
 C    0.018644    0.163416    0.224283
 C   -3.766420   -0.890552    0.027262
 C    0.913175    0.491238    1.250067
 C    0.532059   -0.004923   -1.065642
 C    2.274509    0.640071    1.001373
 C    1.895102    0.141032   -1.319080
 C    2.772028    0.464765   -0.287991
 H   -1.581270   -0.274030    1.571178
 H   -1.900251    1.066249    0.495566
 H   -2.216823   -0.522277   -1.409926
 H   -1.867839   -1.868827   -0.342314
 H   -4.207623    0.106893   -0.036309
 H   -4.339369   -1.552592   -0.624277
 H   -3.887531   -1.244150    1.053865
 H    0.535991    0.626080    2.256484
 H   -0.127133   -0.256658   -1.884083
 H    2.945490    0.889815    1.812393
 H    2.269912    0.001665   -2.324294
 H    3.829274    0.577363   -0.485380
}
memory 700MB
set_num_threads(8)
psi4_io.set_default_path("/home/daniele/PSI4_sctatch/Psi4-propbenzene")
set freeze_core True
E, wfn = energy('wb97x-d/6-311+G*',return_wfn=True)
oeprop(wfn,"WIBERG_LOWDIN_INDICES")
clean()
--------------------------------------------------------------------------

    Molecular point group: c1

    Geometry (in Angstrom), charge = 0, multiplicity = 1:

       Center              X                  Y                   Z               Mass
    ------------   -----------------  -----------------  -----------------  -----------------
         C           -1.464350033633     0.060610866762     0.535768035650    12.000000000000
         C           -2.288938033633    -0.859853133238    -0.373002964350    12.000000000000
         C            0.018643966367     0.163415866762     0.224283035650    12.000000000000
         C           -3.766420033633    -0.890552133238     0.027262035650    12.000000000000
         C            0.913174966367     0.491237866762     1.250067035650    12.000000000000
         C            0.532058966367    -0.004923133238    -1.065641964350    12.000000000000
         C            2.274508966367     0.640070866762     1.001373035650    12.000000000000
         C            1.895101966367     0.141031866762    -1.319079964350    12.000000000000
         C            2.772027966367     0.464764866762    -0.287990964350    12.000000000000
         H           -1.581270033633    -0.274030133238     1.571178035650     1.007825032230
         H           -1.900251033633     1.066248866762     0.495566035650     1.007825032230
         H           -2.216823033633    -0.522277133238    -1.409925964350     1.007825032230
         H           -1.867839033633    -1.868827133238    -0.342313964350     1.007825032230
         H           -4.207623033633     0.106892866762    -0.036308964350     1.007825032230
         H           -4.339369033633    -1.552592133238    -0.624276964350     1.007825032230
         H           -3.887531033633    -1.244150133238     1.053865035650     1.007825032230
         H            0.535990966367     0.626079866762     2.256484035650     1.007825032230
         H           -0.127133033633    -0.256658133238    -1.884082964350     1.007825032230
         H            2.945489966367     0.889814866762     1.812393035650     1.007825032230
         H            2.269911966367     0.001664866762    -2.324293964350     1.007825032230
         H            3.829273966367     0.577362866762    -0.485379964350     1.007825032230

  Charge       = 0
  Multiplicity = 1
  Basis Set: 6-311+G*
    Blend: 6-311+G*
  Basis Set: (6-311+G* AUX)
    Blend: HEAVY-AUG-CC-PVTZ-JKFIT

    Orbital Energies [Eh]
    ---------------------

    Doubly Occupied:

       1A    -10.295604     2A    -10.286308     3A    -10.286192
       4A    -10.284516     5A    -10.283944     6A    -10.283493
       7A    -10.283466     8A    -10.280827     9A    -10.271121
      10A     -0.961062    11A     -0.899495    12A     -0.849026
      13A     -0.844434    14A     -0.776790    15A     -0.710510
      16A     -0.691446    17A     -0.666376    18A     -0.606488
      19A     -0.561055    20A     -0.547129    21A     -0.538243
      22A     -0.518009    23A     -0.505921    24A     -0.491937
      25A     -0.478265    26A     -0.452731    27A     -0.445898
      28A     -0.434197    29A     -0.418705    30A     -0.414017
      31A     -0.405914    32A     -0.328309    33A     -0.318151

  @DF-RKS Final Energy:  -350.14362129065660

   => Energetics <=

    Nuclear Repulsion Energy =            410.2009304672263283
    One-Electron Energy =               -1283.1965711033240041
    Two-Electron Energy =                 559.2696852225265047
    DFT Exchange-Correlation Energy =     -36.4061067816926425
    Empirical Dispersion Energy =          -0.0115590953927416
    VV10 Nonlocal Energy =                  0.0000000000000000
    Total Energy =                       -350.1436212906565970

  Dipole Moment: [D]
     X:    -0.4511      Y:    -0.0601      Z:     0.0188     Total:     0.4555

*** Psi4 exiting successfully. Buy a developer a beer!
