                               Psi4 1.3.2 release

  ==> Input File <==

--------------------------------------------------------------------------
molecule {
0 1
 C   -1.272075   -1.087745    0.429926
 C   -2.398627   -0.531887   -0.495078
 C    0.083432   -0.407643    0.196286
 C   -3.588538    0.086931    0.266126
 C    0.415032    0.788560    0.876009
 C    1.008011   -0.938177   -0.734626
 C    1.648987    1.427008    0.645437
 C    2.242200   -0.299595   -0.964029
 C    2.564348    0.882129   -0.272843
 H   -1.170944   -2.170168    0.274697
 H   -1.551437   -0.990475    1.487203
 H   -1.980168    0.209799   -1.188808
 H   -2.757622   -1.342211   -1.143674
 H   -3.264408    0.928452    0.887820
 H   -4.344403    0.460409   -0.432994
 H   -4.070277   -0.652343    0.915092
 H   -0.284716    1.227759    1.585688
 H    0.772697   -1.848395   -1.284442
 H    1.894532    2.343923    1.178079
 H    2.947717   -0.720707   -1.677903
 H    3.518488    1.374857   -0.449681
}
set optking {
  frozen_dihedral = ("
    4 2 1 3
    2 1 3 5
    2 1 3 6
    1 2 4 14
  ")
}
set {
  geom_maxiter 400
  g_convergence GAU_LOOSE
  dynamic_level 1
}
memory 700MB
set_num_threads(8)
psi4_io.set_default_path("/home/daniele/PSI4_sctatch/Psi4-propbenzene")
for _ in range(1):
  try:
    set opt_coordinates both
    optimize('wb97x-d/6-311G')
    break
  except OptimizationConvergenceError:
    break
  else:
    try:
      set opt_coordinates cartesian
      optimize('wb97x-d/6-311G')
      break
    except OptimizationConvergenceError:
      pass
clean()
--------------------------------------------------------------------------

    Molecular point group: c1
  Charge       = 0
  Multiplicity = 1
  Basis Set: 6-311G
    Blend: 6-311G
  Basis Set: (6-311G AUX)
    Blend: CC-PVTZ-JKFIT
  @DF-RKS Final Energy:  -350.05795086032276
    Total Energy =                       -350.0579508603227623
    Molecular point group: c1
  Basis Set: 6-311G
    Blend: 6-311G
  Basis Set: (6-311G AUX)
    Blend: CC-PVTZ-JKFIT
  Basis Set: 6-311G
    Blend: 6-311G
  Basis Set: (6-311G AUX)
    Blend: CC-PVTZ-JKFIT
  @DF-RKS Final Energy:  -350.06018696763317
    Total Energy =                       -350.0601869676331148
  Basis Set: 6-311G
    Blend: 6-311G
  Basis Set: (6-311G AUX)
    Blend: CC-PVTZ-JKFIT
  Charge       = 0
  Multiplicity = 1
  Basis Set: 6-311G
    Blend: 6-311G
  Basis Set: (6-311G AUX)
    Blend: CC-PVTZ-JKFIT

    Orbital Energies [Eh]
    ---------------------

    Doubly Occupied:

       1A    -10.297428     2A    -10.288782     3A    -10.288700
       4A    -10.286444     5A    -10.285894     6A    -10.285759
       7A    -10.283749     8A    -10.280339     9A    -10.270554
      10A     -0.965781    11A     -0.899342    12A     -0.849696
      13A     -0.848318    14A     -0.779255    15A     -0.704158
      16A     -0.699943    17A     -0.671797    18A     -0.607265
      19A     -0.561153    20A     -0.550240    21A     -0.533068
      22A     -0.518433    23A     -0.509446    24A     -0.493072
      25A     -0.481125    26A     -0.459425    27A     -0.440804
      28A     -0.428041    29A     -0.421728    30A     -0.411323
      31A     -0.403423    32A     -0.329052    33A     -0.317671

  @DF-RKS Final Energy:  -350.06024485145161

   => Energetics <=

    Nuclear Repulsion Energy =            413.0545818662208148
    One-Electron Energy =               -1288.6853926941887494
    Two-Electron Energy =                 561.9710969410448342
    DFT Exchange-Correlation Energy =     -36.3888359021876227
    Empirical Dispersion Energy =          -0.0116950623409827
    VV10 Nonlocal Energy =                  0.0000000000000000
    Total Energy =                       -350.0602448514517278

  Dipole Moment: [D]
     X:    -0.3766      Y:    -0.0993      Z:    -0.0791     Total:     0.3974

    Molecular point group: c1
  Basis Set: 6-311G
    Blend: 6-311G
  Basis Set: (6-311G AUX)
    Blend: CC-PVTZ-JKFIT

  -Total Gradient:
     Atom            X                  Y                   Z
    ------   -----------------  -----------------  -----------------
       1       -0.000864241881    -0.000012995132    -0.000185969554
       2        0.000573323446     0.000053413599     0.000579100569
       3        0.000541391293     0.000491407340    -0.000529986565
       4       -0.000153572670    -0.000183000073     0.000234730250
       5       -0.000245281732    -0.000216332257     0.000041118188
       6       -0.000279085715    -0.000157294686     0.000158740752
       7        0.000208908249     0.000030703378     0.000054103640
       8        0.000168904312    -0.000010009060     0.000060693737
       9       -0.000077588323     0.000058960140    -0.000066485533
      10        0.000090229127    -0.000084425110     0.000094141839
      11        0.000047431892    -0.000008145035    -0.000009677198
      12       -0.000018080949    -0.000042939586    -0.000013995884
      13       -0.000105639241    -0.000054543381    -0.000146603490
      14       -0.000079145858     0.000053697752    -0.000165153555
      15       -0.000020459794     0.000016141585    -0.000022549160
      16        0.000101808115     0.000070549325    -0.000107738578
      17        0.000129919136     0.000003703259    -0.000031379794
      18        0.000109423468     0.000060812874     0.000049214408
      19        0.000006521443    -0.000011110714    -0.000049386872
      20       -0.000014716934     0.000018929497     0.000018252173
      21       -0.000042983455    -0.000016457624    -0.000021120788

  **** Optimization is complete! (in 3 steps) ****
    Final optimized geometry and variables:
    Molecular point group: c1

    Geometry (in Angstrom), charge = 0, multiplicity = 1:

    C           -1.249147415577    -1.052967923926     0.416361002289
    C           -2.353573795505    -0.499991664757    -0.528057355735
    C            0.095134881157    -0.392612093216     0.206665006880
    C           -3.531700375057     0.118952915869     0.229640433793
    C            0.420079627374     0.792187125592     0.876342119613
    C            1.024958320337    -0.925300669539    -0.692004708229
    C            1.637276900563     1.431138667468     0.650304679961
    C            2.243958808134    -0.290113773765    -0.920820712551
    C            2.553380206150     0.892003723835    -0.251043331052
    H           -1.145300455686    -2.131940382705     0.279780319772
    H           -1.560274957459    -0.906042615524     1.454665131586
    H           -1.915984175780     0.251487484625    -1.189506912705
    H           -2.720611322995    -1.300351236397    -1.176123374899
    H           -3.196670809107     0.954589523070     0.849139292184
    H           -4.292445751738     0.495462836210    -0.456935915161
    H           -4.004257495167    -0.615860461210     0.885626133306
    H           -0.285177309861     1.213185271516     1.582584478707
    H            0.791942093833    -1.845469993799    -1.213717069952
    H            1.871552389429     2.345618758329     1.178969073226
    H            2.951302610167    -0.718740762566    -1.618395898571
    H            3.499817409287     1.385335001322    -0.425906034389

*** Psi4 exiting successfully. Buy a developer a beer!
