                               Psi4 1.3.2 release

  ==> Input File <==

--------------------------------------------------------------------------
molecule {
0 1
 C   -1.333311   -0.830336    0.034203
 C   -2.478067    0.206049    0.239326
 C    0.111713   -0.282433   -0.045451
 C   -3.880558   -0.432815    0.302610
 C    0.410718    1.103982   -0.017898
 C    1.186123   -1.193905   -0.204743
 C    1.740770    1.557687   -0.122454
 C    2.514517   -0.739022   -0.308668
 C    2.793247    0.637483   -0.265772
 H   -1.532270   -1.399928   -0.883810
 H   -1.374166   -1.564907    0.849969
 H   -2.291374    0.771181    1.162306
 H   -2.451934    0.939369   -0.577708
 H   -3.955027   -1.142405    1.133588
 H   -4.649109    0.333363    0.449861
 H   -4.115375   -0.966408   -0.624605
 H   -0.375746    1.848158    0.086300
 H    0.991442   -2.265060   -0.246672
 H    1.954013    2.624834   -0.092705
 H    3.326896   -1.454360   -0.423285
 H    3.819728    0.989951   -0.346107
}
set optking {
  frozen_dihedral = ("
    2 1 3 5
    2 1 3 6
    4 2 1 3
    1 2 4 14
  ")
}
set {
  geom_maxiter 400
  g_convergence GAU_LOOSE
  dynamic_level 1
}
memory 700MB
set_num_threads(8)
psi4_io.set_default_path("/home/daniele/PSI4_sctatch/Psi4-propbenzene")
for _ in range(1):
  try:
    set opt_coordinates both
    optimize('wb97x-d/6-311G')
    break
  except OptimizationConvergenceError:
    break
  else:
    try:
      set opt_coordinates cartesian
      optimize('wb97x-d/6-311G')
      break
    except OptimizationConvergenceError:
      pass
clean()
--------------------------------------------------------------------------

    Molecular point group: c1
  Charge       = 0
  Multiplicity = 1
  Basis Set: 6-311G
    Blend: 6-311G
  Basis Set: (6-311G AUX)
    Blend: CC-PVTZ-JKFIT
  @DF-RKS Final Energy:  -350.06055452134774
    Total Energy =                       -350.0605545213477399
    Molecular point group: c1
  Basis Set: 6-311G
    Blend: 6-311G
  Basis Set: (6-311G AUX)
    Blend: CC-PVTZ-JKFIT
  Basis Set: 6-311G
    Blend: 6-311G
  Basis Set: (6-311G AUX)
    Blend: CC-PVTZ-JKFIT
  @DF-RKS Final Energy:  -350.06320070972231
    Total Energy =                       -350.0632007097223095
  Basis Set: 6-311G
    Blend: 6-311G
  Basis Set: (6-311G AUX)
    Blend: CC-PVTZ-JKFIT
  Charge       = 0
  Multiplicity = 1
  Basis Set: 6-311G
    Blend: 6-311G
  Basis Set: (6-311G AUX)
    Blend: CC-PVTZ-JKFIT

    Orbital Energies [Eh]
    ---------------------

    Doubly Occupied:

       1A    -10.298950     2A    -10.287877     3A    -10.287481
       4A    -10.286122     5A    -10.285244     6A    -10.284869
       7A    -10.284805     8A    -10.282536     9A    -10.272308
      10A     -0.965444    11A     -0.902695    12A     -0.852261
      13A     -0.847084    14A     -0.779887    15A     -0.714619
      16A     -0.692657    17A     -0.667907    18A     -0.609388
      19A     -0.561099    20A     -0.547334    21A     -0.543040
      22A     -0.521315    23A     -0.508573    24A     -0.488736
      25A     -0.485563    26A     -0.451563    27A     -0.446021
      28A     -0.435310    29A     -0.416582    30A     -0.413671
      31A     -0.407372    32A     -0.328202    33A     -0.317387

  @DF-RKS Final Energy:  -350.06335759257024

   => Energetics <=

    Nuclear Repulsion Energy =            410.3545886152381286
    One-Electron Energy =               -1283.2441004788181544
    Two-Electron Energy =                 559.2307103634304895
    DFT Exchange-Correlation Energy =     -36.3929120518510416
    Empirical Dispersion Energy =          -0.0116440405695877
    VV10 Nonlocal Energy =                  0.0000000000000000
    Total Energy =                       -350.0633575925702416

  Dipole Moment: [D]
     X:    -0.4630      Y:    -0.1305      Z:     0.0029     Total:     0.4810

    Molecular point group: c1
  Basis Set: 6-311G
    Blend: 6-311G
  Basis Set: (6-311G AUX)
    Blend: CC-PVTZ-JKFIT

  -Total Gradient:
     Atom            X                  Y                   Z
    ------   -----------------  -----------------  -----------------
       1       -0.000631272063    -0.000230419397    -0.001089226585
       2       -0.000749886889    -0.000417325720     0.000352079590
       3        0.001851640484    -0.000457516502     0.003634664903
       4       -0.000032303637     0.000018458276    -0.000350714863
       5        0.000325405719     0.000205518708    -0.001506093139
       6       -0.000897546267     0.000755681848    -0.001202092133
       7       -0.000318686215    -0.000230668220     0.000039666896
       8        0.000183259796     0.000764818199     0.000035034121
       9       -0.000245465440    -0.000583046727    -0.000015016526
      10       -0.000001150996     0.000191327566     0.000232163693
      11       -0.000039909716     0.000217018963    -0.000152894543
      12       -0.000024138414    -0.000242118766    -0.000057701101
      13       -0.000120257569    -0.000344028335     0.000024491068
      14        0.000091798551     0.000163430155    -0.000130555774
      15       -0.000082485671     0.000015825422     0.000001983687
      16        0.000110708635     0.000120516517     0.000169124131
      17        0.000640379794    -0.000270494405    -0.000040294530
      18        0.000133181404     0.000245056960     0.000008271509
      19        0.000061889125    -0.000203558646    -0.000021461853
      20       -0.000095244020     0.000112710431     0.000002768021
      21       -0.000135660641    -0.000023586727     0.000018401401

  **** Optimization is complete! (in 3 steps) ****
    Final optimized geometry and variables:
    Molecular point group: c1

    Geometry (in Angstrom), charge = 0, multiplicity = 1:

    C           -1.337043898475    -0.798684960818     0.070692359577
    C           -2.449888861195     0.233688291116     0.272284340533
    C            0.083837801252    -0.265102432724    -0.007259855462
    C           -3.834449499957    -0.416187578117     0.331962077813
    C            0.389827254060     1.098109890655     0.019441205454
    C            1.138311063001    -1.173577645964    -0.164472391743
    C            1.709316436413     1.538094252912    -0.088675455913
    C            2.454856369998    -0.739342110901    -0.273617429562
    C            2.746496438103     0.623209872004    -0.234836155364
    H           -1.545510405306    -1.359052686292    -0.847587363585
    H           -1.390029550037    -1.530790215554     0.884257151500
    H           -2.268041316644     0.792610342528     1.195012484281
    H           -2.428806140555     0.959530089261    -0.545821371775
    H           -3.898530059054    -1.125126703115     1.160698042350
    H           -4.616548804166     0.332248474002     0.470219297615
    H           -4.050365837363    -0.960604528174    -0.590223381930
    H           -0.396937642437     1.830081431902     0.130498968784
    H            0.920185083789    -2.234274572588    -0.198704714017
    H            1.923056106856     2.598180456878    -0.060792555713
    H            3.251638382430    -1.461608586924    -0.391188492863
    H            3.768704815453     0.965652032275    -0.319531929964

*** Psi4 exiting successfully. Buy a developer a beer!
