                               Psi4 1.3.2 release

  ==> Input File <==

--------------------------------------------------------------------------
molecule {
0 1
 C   -1.249147   -1.052968    0.416361
 C   -2.353574   -0.499992   -0.528057
 C    0.095135   -0.392612    0.206665
 C   -3.531700    0.118953    0.229640
 C    0.420080    0.792187    0.876342
 C    1.024958   -0.925301   -0.692005
 C    1.637277    1.431139    0.650305
 C    2.243959   -0.290114   -0.920821
 C    2.553380    0.892004   -0.251043
 H   -1.145300   -2.131940    0.279780
 H   -1.560275   -0.906043    1.454665
 H   -1.915984    0.251487   -1.189507
 H   -2.720611   -1.300351   -1.176123
 H   -3.196671    0.954590    0.849139
 H   -4.292446    0.495463   -0.456936
 H   -4.004257   -0.615860    0.885626
 H   -0.285177    1.213185    1.582584
 H    0.791942   -1.845470   -1.213717
 H    1.871552    2.345619    1.178969
 H    2.951303   -0.718741   -1.618396
 H    3.499817    1.385335   -0.425906
}
memory 700MB
set_num_threads(8)
psi4_io.set_default_path("/home/daniele/PSI4_sctatch/Psi4-propbenzene")
set freeze_core True
E, wfn = energy('wb97x-d/6-311+G*',return_wfn=True)
oeprop(wfn,"WIBERG_LOWDIN_INDICES")
clean()
--------------------------------------------------------------------------

    Molecular point group: c1

    Geometry (in Angstrom), charge = 0, multiplicity = 1:

       Center              X                  Y                   Z               Mass
    ------------   -----------------  -----------------  -----------------  -----------------
         C           -1.249147090681    -1.052967974111     0.416361023751    12.000000000000
         C           -2.353574090681    -0.499991974111    -0.528056976249    12.000000000000
         C            0.095134909319    -0.392611974111     0.206665023751    12.000000000000
         C           -3.531700090681     0.118953025889     0.229640023751    12.000000000000
         C            0.420079909319     0.792187025889     0.876342023751    12.000000000000
         C            1.024957909319    -0.925300974111    -0.692004976249    12.000000000000
         C            1.637276909319     1.431139025889     0.650305023751    12.000000000000
         C            2.243958909319    -0.290113974111    -0.920820976249    12.000000000000
         C            2.553379909319     0.892004025889    -0.251042976249    12.000000000000
         H           -1.145300090681    -2.131939974111     0.279780023751     1.007825032230
         H           -1.560275090681    -0.906042974111     1.454665023751     1.007825032230
         H           -1.915984090681     0.251487025889    -1.189506976249     1.007825032230
         H           -2.720611090681    -1.300350974111    -1.176122976249     1.007825032230
         H           -3.196671090681     0.954590025889     0.849139023751     1.007825032230
         H           -4.292446090681     0.495463025889    -0.456935976249     1.007825032230
         H           -4.004257090681    -0.615859974111     0.885626023751     1.007825032230
         H           -0.285177090681     1.213185025889     1.582584023751     1.007825032230
         H            0.791941909319    -1.845469974111    -1.213716976249     1.007825032230
         H            1.871551909319     2.345619025889     1.178969023751     1.007825032230
         H            2.951302909319    -0.718740974111    -1.618395976249     1.007825032230
         H            3.499816909319     1.385335025889    -0.425905976249     1.007825032230

  Charge       = 0
  Multiplicity = 1
  Basis Set: 6-311+G*
    Blend: 6-311+G*
  Basis Set: (6-311+G* AUX)
    Blend: HEAVY-AUG-CC-PVTZ-JKFIT

    Orbital Energies [Eh]
    ---------------------

    Doubly Occupied:

       1A    -10.294282     2A    -10.287157     3A    -10.287077
       4A    -10.284776     5A    -10.284320     6A    -10.284206
       7A    -10.282699     8A    -10.279130     9A    -10.269965
      10A     -0.961386    11A     -0.896832    12A     -0.846808
      13A     -0.845400    14A     -0.776556    15A     -0.702011
      16A     -0.697682    17A     -0.669186    18A     -0.604693
      19A     -0.558869    20A     -0.550464    21A     -0.531457
      22A     -0.516389    23A     -0.506658    24A     -0.491371
      25A     -0.479728    26A     -0.458833    27A     -0.440483
      28A     -0.428266    29A     -0.422009    30A     -0.411548
      31A     -0.404049    32A     -0.329005    33A     -0.317972

  @DF-RKS Final Energy:  -350.14019269020173

   => Energetics <=

    Nuclear Repulsion Energy =            413.0545851148056045
    One-Electron Energy =               -1288.9354594317726423
    Two-Electron Energy =                 562.1547500916273066
    DFT Exchange-Correlation Energy =     -36.4023734027502144
    Empirical Dispersion Energy =          -0.0116950621117608
    VV10 Nonlocal Energy =                  0.0000000000000000
    Total Energy =                       -350.1401926902016726

  Dipole Moment: [D]
     X:    -0.3937      Y:    -0.1235      Z:    -0.0915     Total:     0.4226

*** Psi4 exiting successfully. Buy a developer a beer!
