                               Psi4 1.3.2 release

  ==> Input File <==

--------------------------------------------------------------------------
molecule {
0 1
 C   -1.316508   -0.835734    0.252015
 C   -2.473447    0.185821    0.037914
 C    0.122570   -0.294113    0.077990
 C   -3.877362   -0.425690    0.223344
 C    0.450518    1.070180    0.283881
 C    1.151349   -1.170518   -0.350915
 C    1.765576    1.534956    0.084529
 C    2.465083   -0.704392   -0.550255
 C    2.773740    0.648757   -0.331246
 H   -1.464554   -1.678631   -0.436505
 H   -1.395612   -1.264415    1.260023
 H   -2.358307    1.020919    0.740115
 H   -2.385420    0.622165   -0.966075
 H   -4.005465   -0.826057    1.234757
 H   -4.652922    0.330904    0.062863
 H   -4.052452   -1.238577   -0.489492
 H   -0.302532    1.786810    0.603453
 H    0.934436   -2.222681   -0.531236
 H    2.001651    2.584233    0.252681
 H    3.242893   -1.393024   -0.875242
 H    3.788995    1.009565   -0.484314
}
set optking {
  frozen_dihedral = ("
    2 1 3 5
    2 1 3 6
    4 2 1 3
    1 2 4 14
  ")
}
set {
  geom_maxiter 400
  g_convergence GAU_LOOSE
  dynamic_level 1
}
memory 700MB
set_num_threads(8)
psi4_io.set_default_path("/home/daniele/PSI4_sctatch/Psi4-propbenzene")
for _ in range(1):
  try:
    set opt_coordinates both
    optimize('wb97x-d/6-311G')
    break
  except OptimizationConvergenceError:
    break
  else:
    try:
      set opt_coordinates cartesian
      optimize('wb97x-d/6-311G')
      break
    except OptimizationConvergenceError:
      pass
clean()
--------------------------------------------------------------------------

    Molecular point group: c1
  Charge       = 0
  Multiplicity = 1
  Basis Set: 6-311G
    Blend: 6-311G
  Basis Set: (6-311G AUX)
    Blend: CC-PVTZ-JKFIT
  @DF-RKS Final Energy:  -350.06045543109133
    Total Energy =                       -350.0604554310913272
    Molecular point group: c1
  Basis Set: 6-311G
    Blend: 6-311G
  Basis Set: (6-311G AUX)
    Blend: CC-PVTZ-JKFIT
  Basis Set: 6-311G
    Blend: 6-311G
  Basis Set: (6-311G AUX)
    Blend: CC-PVTZ-JKFIT
  @DF-RKS Final Energy:  -350.06306403844701
    Total Energy =                       -350.0630640384469530
  Basis Set: 6-311G
    Blend: 6-311G
  Basis Set: (6-311G AUX)
    Blend: CC-PVTZ-JKFIT
  Charge       = 0
  Multiplicity = 1
  Basis Set: 6-311G
    Blend: 6-311G
  Basis Set: (6-311G AUX)
    Blend: CC-PVTZ-JKFIT

    Orbital Energies [Eh]
    ---------------------

    Doubly Occupied:

       1A    -10.298869     2A    -10.287974     3A    -10.287865
       4A    -10.285784     5A    -10.285641     6A    -10.285210
       7A    -10.285102     8A    -10.282279     9A    -10.272020
      10A     -0.965519    11A     -0.902216    12A     -0.852048
      13A     -0.847395    14A     -0.779691    15A     -0.712996
      16A     -0.693606    17A     -0.669077    18A     -0.609216
      19A     -0.562541    20A     -0.546883    21A     -0.541268
      22A     -0.520682    23A     -0.508758    24A     -0.493220
      25A     -0.479399    26A     -0.453761    27A     -0.446455
      28A     -0.434226    29A     -0.417724    30A     -0.413964
      31A     -0.405601    32A     -0.328369    33A     -0.317842

  @DF-RKS Final Energy:  -350.06318769697646

   => Energetics <=

    Nuclear Repulsion Energy =            410.3356549360426015
    One-Electron Energy =               -1283.2077022507328365
    Two-Electron Energy =                 559.2128002969275258
    DFT Exchange-Correlation Energy =     -36.3923724304084359
    Empirical Dispersion Energy =          -0.0115682488053538
    VV10 Nonlocal Energy =                  0.0000000000000000
    Total Energy =                       -350.0631876969765131

  Dipole Moment: [D]
     X:    -0.4449      Y:    -0.0767      Z:     0.0210     Total:     0.4520

    Molecular point group: c1
  Basis Set: 6-311G
    Blend: 6-311G
  Basis Set: (6-311G AUX)
    Blend: CC-PVTZ-JKFIT

  -Total Gradient:
     Atom            X                  Y                   Z
    ------   -----------------  -----------------  -----------------
       1       -0.001023337912    -0.000290534277    -0.003264222364
       2       -0.000528043888    -0.000345227244    -0.000549775388
       3        0.002590908176    -0.000930103639     0.006539485530
       4       -0.000021028317     0.000234412772     0.001101745933
       5       -0.000127224099     0.000383262280    -0.002062838921
       6       -0.000906035590     0.000867011590    -0.001359638584
       7       -0.000107707370    -0.000215267043    -0.000076710856
       8        0.000065808313     0.000535641194    -0.000047886959
       9       -0.000244886834    -0.000354654339     0.000053256419
      10        0.000066798039     0.000227311457     0.000120144602
      11       -0.000036186949     0.000144679804    -0.000213425394
      12       -0.000246136288    -0.000379988483    -0.000095261946
      13        0.000098962578    -0.000085474108     0.000056410460
      14        0.000014109279     0.000181551398    -0.000140065201
      15       -0.000093380029     0.000041036695     0.000015609649
      16        0.000104241249     0.000191981667     0.000091947106
      17        0.000616450121    -0.000178465092    -0.000140270935
      18        0.000074964586     0.000221961873     0.000007365332
      19        0.000033803941    -0.000167924833    -0.000056672641
      20       -0.000086107502     0.000100635547     0.000023772963
      21       -0.000119395797    -0.000048177509     0.000019636509

  **** Optimization is complete! (in 3 steps) ****
    Final optimized geometry and variables:
    Molecular point group: c1

    Geometry (in Angstrom), charge = 0, multiplicity = 1:

    C           -1.326654897507    -0.787811866832     0.268087668656
    C           -2.451699023885     0.232851811215     0.055166765021
    C            0.092167429198    -0.272562006487     0.096589951850
    C           -3.837073613460    -0.389833762279     0.247258169352
    C            0.438346421384     1.067739316562     0.296002555611
    C            1.094954085672    -1.153505903128    -0.325783875519
    C            1.748976237679     1.504948499777     0.110087212473
    C            2.405213983551    -0.722114425567    -0.510978425022
    C            2.738571111219     0.612422473292    -0.291023858000
    H           -1.477642719310    -1.623719440635    -0.421694766575
    H           -1.431124660879    -1.209855923574     1.275238999005
    H           -2.342414315535     1.060777734988     0.760124926858
    H           -2.365191930238     0.661583275930    -0.947332428552
    H           -3.948006139603    -0.787648438831     1.258667120599
    H           -4.627056503058     0.346160242919     0.088101281494
    H           -3.998905975132    -1.211674131694    -0.454163552566
    H           -0.312104702784     1.783049206526     0.600582250332
    H            0.843053380628    -2.190672040755    -0.510541721639
    H            1.993433199930     2.545989580133     0.273804094592
    H            3.162079672871    -1.423966824028    -0.834800331291
    H            3.754375114517     0.952951379342    -0.437946424959

*** Psi4 exiting successfully. Buy a developer a beer!
