                               Psi4 1.3.2 release

  ==> Input File <==

--------------------------------------------------------------------------
molecule {
0 1
 C   -1.427483   -0.117078    0.617297
 C   -2.330645   -0.677242   -0.485059
 C    0.040069    0.069508    0.268874
 C   -3.783278   -0.817849   -0.023436
 C    0.890175    0.652729    1.217098
 C    0.577976   -0.267360   -0.976047
 C    2.235318    0.873119    0.941903
 C    1.926945   -0.048283   -1.256314
 C    2.761082    0.520702   -0.300029
 H   -1.498076   -0.774774    1.491181
 H   -1.830311    0.849387    0.939431
 H   -2.288109   -0.022487   -1.360392
 H   -1.957020   -1.654839   -0.803549
 H   -4.195789    0.150197    0.270273
 H   -4.412635   -1.222964   -0.817570
 H   -3.856926   -1.486778    0.837118
 H    0.488600    0.934193    2.183194
 H   -0.048672   -0.706787   -1.738468
 H    2.871451    1.322719    1.692583
 H    2.322307   -0.320532   -2.225746
 H    3.806195    0.691239   -0.519103
}
memory 700MB
set_num_threads(8)
psi4_io.set_default_path("/home/daniele/PSI4_sctatch/Psi4-propbenzene")
set freeze_core True
E, wfn = energy('wb97x-d/6-311+G*',return_wfn=True)
oeprop(wfn,"WIBERG_LOWDIN_INDICES")
clean()
--------------------------------------------------------------------------

    Molecular point group: c1

    Geometry (in Angstrom), charge = 0, multiplicity = 1:

       Center              X                  Y                   Z               Mass
    ------------   -----------------  -----------------  -----------------  -----------------
         C           -1.427482880100    -0.117077889830     0.617297028746    12.000000000000
         C           -2.330644880100    -0.677241889830    -0.485058971254    12.000000000000
         C            0.040069119900     0.069508110170     0.268874028746    12.000000000000
         C           -3.783277880100    -0.817848889830    -0.023435971254    12.000000000000
         C            0.890175119900     0.652729110170     1.217098028746    12.000000000000
         C            0.577976119900    -0.267359889830    -0.976046971254    12.000000000000
         C            2.235318119900     0.873119110170     0.941903028746    12.000000000000
         C            1.926945119900    -0.048282889830    -1.256313971254    12.000000000000
         C            2.761082119900     0.520702110170    -0.300028971254    12.000000000000
         H           -1.498075880100    -0.774773889830     1.491181028746     1.007825032230
         H           -1.830310880100     0.849387110170     0.939431028746     1.007825032230
         H           -2.288108880100    -0.022486889830    -1.360391971254     1.007825032230
         H           -1.957019880100    -1.654838889830    -0.803548971254     1.007825032230
         H           -4.195788880100     0.150197110170     0.270273028746     1.007825032230
         H           -4.412634880100    -1.222963889830    -0.817569971254     1.007825032230
         H           -3.856925880100    -1.486777889830     0.837118028746     1.007825032230
         H            0.488600119900     0.934193110170     2.183194028746     1.007825032230
         H           -0.048671880100    -0.706786889830    -1.738467971254     1.007825032230
         H            2.871451119900     1.322719110170     1.692583028746     1.007825032230
         H            2.322307119900    -0.320531889830    -2.225745971254     1.007825032230
         H            3.806195119900     0.691239110170    -0.519102971254     1.007825032230

  Charge       = 0
  Multiplicity = 1
  Basis Set: 6-311+G*
    Blend: 6-311+G*
  Basis Set: (6-311+G* AUX)
    Blend: HEAVY-AUG-CC-PVTZ-JKFIT

    Orbital Energies [Eh]
    ---------------------

    Doubly Occupied:

       1A    -10.295682     2A    -10.286036     3A    -10.285656
       4A    -10.284863     5A    -10.283450     6A    -10.283092
       7A    -10.283066     8A    -10.281180     9A    -10.271489
      10A     -0.960924    11A     -0.900033    12A     -0.849173
      13A     -0.844030    14A     -0.776978    15A     -0.712152
      16A     -0.690380    17A     -0.665252    18A     -0.606613
      19A     -0.560121    20A     -0.546373    21A     -0.540589
      22A     -0.518728    23A     -0.505592    24A     -0.487961
      25A     -0.483759    26A     -0.450464    27A     -0.445278
      28A     -0.435253    29A     -0.418141    30A     -0.413754
      31A     -0.407386    32A     -0.327974    33A     -0.317694

  @DF-RKS Final Energy:  -350.14375502008011

   => Energetics <=

    Nuclear Repulsion Energy =            410.3697393847608055
    One-Electron Energy =               -1283.5347321871313397
    Two-Electron Energy =                 559.4398063311500664
    DFT Exchange-Correlation Energy =     -36.4069231076619815
    Empirical Dispersion Energy =          -0.0116454411976101
    VV10 Nonlocal Energy =                  0.0000000000000000
    Total Energy =                       -350.1437550200801070

  Dipole Moment: [D]
     X:    -0.4919      Y:    -0.0613      Z:     0.0477     Total:     0.4980

*** Psi4 exiting successfully. Buy a developer a beer!
