                               Psi4 1.3.2 release

  ==> Input File <==

--------------------------------------------------------------------------
molecule {
0 1
 C   -1.376025   -0.705886   -0.321236
 C   -2.337227    0.019794    0.636208
 C    0.056989   -0.228562   -0.217928
 C   -3.778316   -0.480710    0.513056
 C    0.394760    1.088169   -0.552759
 C    1.082434   -1.099417    0.161073
 C    1.713420    1.528996   -0.482247
 C    2.404416   -0.662695    0.234349
 C    2.723839    0.654481   -0.084932
 H   -1.731267   -0.568445   -1.348537
 H   -1.416825   -1.780382   -0.121366
 H   -1.981945   -0.114234    1.662031
 H   -2.304403    1.094948    0.437832
 H   -3.843107   -1.546584    0.744405
 H   -4.441802    0.050866    1.197551
 H   -4.156871   -0.336281   -0.501807
 H   -0.380312    1.772429   -0.875545
 H    0.842530   -2.126708    0.406082
 H    1.953485    2.551253   -0.742930
 H    3.182520   -1.351344    0.535774
 H    3.748901    0.995080   -0.031141
}
memory 700MB
set_num_threads(8)
psi4_io.set_default_path("/home/daniele/PSI4_sctatch/Psi4-propbenzene")
set freeze_core True
E, wfn = energy('wb97x-d/6-311+G*',return_wfn=True)
oeprop(wfn,"WIBERG_LOWDIN_INDICES")
clean()
--------------------------------------------------------------------------

    Molecular point group: c1

    Geometry (in Angstrom), charge = 0, multiplicity = 1:

       Center              X                  Y                   Z               Mass
    ------------   -----------------  -----------------  -----------------  -----------------
         C           -1.376024945746    -0.705886005292    -0.321236145093    12.000000000000
         C           -2.337226945746     0.019793994708     0.636207854907    12.000000000000
         C            0.056989054254    -0.228562005292    -0.217928145093    12.000000000000
         C           -3.778315945746    -0.480710005292     0.513055854907    12.000000000000
         C            0.394760054254     1.088168994708    -0.552759145093    12.000000000000
         C            1.082434054254    -1.099417005292     0.161072854907    12.000000000000
         C            1.713420054254     1.528995994708    -0.482247145093    12.000000000000
         C            2.404416054254    -0.662695005292     0.234348854907    12.000000000000
         C            2.723839054254     0.654480994708    -0.084932145093    12.000000000000
         H           -1.731266945746    -0.568445005292    -1.348537145093     1.007825032230
         H           -1.416824945746    -1.780382005292    -0.121366145093     1.007825032230
         H           -1.981944945746    -0.114234005292     1.662030854907     1.007825032230
         H           -2.304402945746     1.094947994708     0.437831854907     1.007825032230
         H           -3.843106945746    -1.546584005292     0.744404854907     1.007825032230
         H           -4.441801945746     0.050865994708     1.197550854907     1.007825032230
         H           -4.156870945746    -0.336281005292    -0.501807145093     1.007825032230
         H           -0.380311945746     1.772428994708    -0.875545145093     1.007825032230
         H            0.842530054254    -2.126708005292     0.406081854907     1.007825032230
         H            1.953485054254     2.551252994708    -0.742930145093     1.007825032230
         H            3.182520054254    -1.351344005292     0.535773854907     1.007825032230
         H            3.748901054254     0.995079994708    -0.031141145093     1.007825032230

  Charge       = 0
  Multiplicity = 1
  Basis Set: 6-311+G*
    Blend: 6-311+G*
  Basis Set: (6-311+G* AUX)
    Blend: HEAVY-AUG-CC-PVTZ-JKFIT

    Orbital Energies [Eh]
    ---------------------

    Doubly Occupied:

       1A    -10.294714     2A    -10.287155     3A    -10.286806
       4A    -10.284841     5A    -10.284530     6A    -10.284496
       7A    -10.283534     8A    -10.279972     9A    -10.270161
      10A     -0.961579    11A     -0.898858    12A     -0.848038
      13A     -0.845361    14A     -0.776627    15A     -0.705028
      16A     -0.694777    17A     -0.668937    18A     -0.605661
      19A     -0.563516    20A     -0.548179    21A     -0.531236
      22A     -0.516144    23A     -0.506691    24A     -0.498167
      25A     -0.469881    26A     -0.458763    27A     -0.446465
      28A     -0.429678    29A     -0.420920    30A     -0.413122
      31A     -0.406377    32A     -0.328836    33A     -0.318538

  @DF-RKS Final Energy:  -350.14496778354066

   => Energetics <=

    Nuclear Repulsion Energy =            410.6621356274982304
    One-Electron Energy =               -1284.1270418988631263
    Two-Electron Energy =                 559.7353965901319270
    DFT Exchange-Correlation Energy =     -36.4038702937077616
    Empirical Dispersion Energy =          -0.0115878085998900
    VV10 Nonlocal Energy =                  0.0000000000000000
    Total Energy =                       -350.1449677835406646

  Dipole Moment: [D]
     X:    -0.3779      Y:    -0.0321      Z:     0.0258     Total:     0.3801

*** Psi4 exiting successfully. Buy a developer a beer!
