                               Psi4 1.3.2 release

  ==> Input File <==

--------------------------------------------------------------------------
molecule {
0 1
 C   -1.295229   -0.288822    1.292209
 C   -2.533491    0.150108    0.484432
 C    0.010982   -0.080263    0.558719
 C   -2.710220   -0.593524   -0.841049
 C    0.675439    1.148816    0.633180
 C    0.566881   -1.088351   -0.236047
 C    1.860143    1.367278   -0.066609
 C    1.751012   -0.874733   -0.938874
 C    2.401332    0.355009   -0.856830
 H   -1.399945   -1.347531    1.550846
 H   -1.275001    0.263443    2.235464
 H   -3.420815    0.006471    1.108367
 H   -2.460318    1.225073    0.288631
 H   -2.820299   -1.668613   -0.675278
 H   -3.602787   -0.244973   -1.363766
 H   -1.853894   -0.439640   -1.499219
 H    0.261104    1.938589    1.248320
 H    0.068330   -2.047606   -0.300645
 H    2.360962    2.323534    0.007045
 H    2.166234   -1.667339   -1.547071
 H    3.321959    0.521261   -1.399547
}
memory 700MB
set_num_threads(8)
psi4_io.set_default_path("/home/daniele/PSI4_sctatch/Psi4-propbenzene")
set freeze_core True
E, wfn = energy('wb97x-d/6-311+G*',return_wfn=True)
oeprop(wfn,"WIBERG_LOWDIN_INDICES")
clean()
--------------------------------------------------------------------------

    Molecular point group: c1

    Geometry (in Angstrom), charge = 0, multiplicity = 1:

       Center              X                  Y                   Z               Mass
    ------------   -----------------  -----------------  -----------------  -----------------
         C           -1.295228970800    -0.288821877998     1.292208959498    12.000000000000
         C           -2.533490970800     0.150108122002     0.484431959498    12.000000000000
         C            0.010982029200    -0.080262877998     0.558718959498    12.000000000000
         C           -2.710219970800    -0.593523877998    -0.841049040502    12.000000000000
         C            0.675439029200     1.148816122002     0.633179959498    12.000000000000
         C            0.566881029200    -1.088350877998    -0.236047040502    12.000000000000
         C            1.860143029200     1.367278122002    -0.066609040502    12.000000000000
         C            1.751012029200    -0.874732877998    -0.938874040502    12.000000000000
         C            2.401332029200     0.355009122002    -0.856830040502    12.000000000000
         H           -1.399944970800    -1.347530877998     1.550845959498     1.007825032230
         H           -1.275000970800     0.263443122002     2.235463959498     1.007825032230
         H           -3.420814970800     0.006471122002     1.108366959498     1.007825032230
         H           -2.460317970800     1.225073122002     0.288630959498     1.007825032230
         H           -2.820298970800    -1.668612877998    -0.675278040502     1.007825032230
         H           -3.602786970800    -0.244972877998    -1.363766040502     1.007825032230
         H           -1.853893970800    -0.439639877998    -1.499219040502     1.007825032230
         H            0.261104029200     1.938589122002     1.248319959498     1.007825032230
         H            0.068330029200    -2.047605877998    -0.300645040502     1.007825032230
         H            2.360962029200     2.323534122002     0.007044959498     1.007825032230
         H            2.166234029200    -1.667338877998    -1.547071040502     1.007825032230
         H            3.321959029200     0.521261122002    -1.399547040502     1.007825032230

  Charge       = 0
  Multiplicity = 1
  Basis Set: 6-311+G*
    Blend: 6-311+G*
  Basis Set: (6-311+G* AUX)
    Blend: HEAVY-AUG-CC-PVTZ-JKFIT

    Orbital Energies [Eh]
    ---------------------

    Doubly Occupied:

       1A    -10.294030     2A    -10.287258     3A    -10.287188
       4A    -10.285216     5A    -10.284779     6A    -10.284601
       7A    -10.283238     8A    -10.280029     9A    -10.265581
      10A     -0.961852    11A     -0.898261    12A     -0.846039
      13A     -0.843614    14A     -0.778756    15A     -0.704625
      16A     -0.697819    17A     -0.663594    18A     -0.603215
      19A     -0.558203    20A     -0.551319    21A     -0.533992
      22A     -0.519694    23A     -0.506376    24A     -0.491875
      25A     -0.475656    26A     -0.455172    27A     -0.441980
      28A     -0.428387    29A     -0.420550    30A     -0.412450
      31A     -0.404833    32A     -0.328816    33A     -0.318960

  @DF-RKS Final Energy:  -350.14579682410209

   => Energetics <=

    Nuclear Repulsion Energy =            419.6934284138332600
    One-Electron Energy =               -1302.2276532374035014
    Two-Electron Energy =                 568.8061439320969157
    DFT Exchange-Correlation Energy =     -36.4051561428724142
    Empirical Dispersion Energy =          -0.0125597897563158
    VV10 Nonlocal Energy =                  0.0000000000000000
    Total Energy =                       -350.1457968241020353

  Dipole Moment: [D]
     X:    -0.3715      Y:     0.0327      Z:     0.0910     Total:     0.3838

*** Psi4 exiting successfully. Buy a developer a beer!
