                               Psi4 1.3.2 release

  ==> Input File <==

--------------------------------------------------------------------------
molecule {
0 1
 C   -1.259481   -1.420352    0.388775
 C   -2.511367   -0.899306   -0.372439
 C   -0.006060   -0.549775    0.203313
 C   -2.980437    0.514827    0.031484
 C    0.241789    0.558735    1.048634
 C    0.911048   -0.823569   -0.839566
 C    1.381957    1.364168    0.863323
 C    2.051731   -0.018233   -1.023726
 C    2.288519    1.075276   -0.171957
 H   -1.042117   -2.447448    0.066863
 H   -1.489803   -1.507078    1.459117
 H   -2.302508   -0.922518   -1.450796
 H   -3.332805   -1.613257   -0.224562
 H   -2.202868    1.263653   -0.150113
 H   -3.864588    0.808043   -0.544625
 H   -3.246158    0.553449    1.093241
 H   -0.450251    0.799930    1.853890
 H    0.742203   -1.662805   -1.512925
 H    1.561890    2.211849    1.521929
 H    2.751262   -0.242053   -1.827010
 H    3.170274    1.696944   -0.314568
}
set optking {
  frozen_dihedral = ("
    4 2 1 3
    2 1 3 5
    2 1 3 6
    1 2 4 14
  ")
}
set {
  geom_maxiter 400
  g_convergence GAU_LOOSE
  dynamic_level 1
}
memory 700MB
set_num_threads(8)
psi4_io.set_default_path("/home/daniele/PSI4_sctatch/Psi4-propbenzene")
for _ in range(1):
  try:
    set opt_coordinates both
    optimize('wb97x-d/6-311G')
    break
  except OptimizationConvergenceError:
    break
  else:
    try:
      set opt_coordinates cartesian
      optimize('wb97x-d/6-311G')
      break
    except OptimizationConvergenceError:
      pass
clean()
--------------------------------------------------------------------------

    Molecular point group: c1
  Charge       = 0
  Multiplicity = 1
  Basis Set: 6-311G
    Blend: 6-311G
  Basis Set: (6-311G AUX)
    Blend: CC-PVTZ-JKFIT
  @DF-RKS Final Energy:  -350.06318850282929
    Total Energy =                       -350.0631885028292345
    Molecular point group: c1
  Basis Set: 6-311G
    Blend: 6-311G
  Basis Set: (6-311G AUX)
    Blend: CC-PVTZ-JKFIT
  Basis Set: 6-311G
    Blend: 6-311G
  Basis Set: (6-311G AUX)
    Blend: CC-PVTZ-JKFIT
  @DF-RKS Final Energy:  -350.06544786312026
    Total Energy =                       -350.0654478631202551
  Basis Set: 6-311G
    Blend: 6-311G
  Basis Set: (6-311G AUX)
    Blend: CC-PVTZ-JKFIT
  Charge       = 0
  Multiplicity = 1
  Basis Set: 6-311G
    Blend: 6-311G
  Basis Set: (6-311G AUX)
    Blend: CC-PVTZ-JKFIT

    Orbital Energies [Eh]
    ---------------------

    Doubly Occupied:

       1A    -10.297596     2A    -10.289065     3A    -10.288931
       4A    -10.287009     5A    -10.286458     6A    -10.286444
       7A    -10.284559     8A    -10.281513     9A    -10.266417
      10A     -0.966368    11A     -0.900885    12A     -0.849302
      13A     -0.846635    14A     -0.781899    15A     -0.706691
      16A     -0.700407    17A     -0.666635    18A     -0.605723
      19A     -0.560477    20A     -0.552269    21A     -0.535326
      22A     -0.520867    23A     -0.509098    24A     -0.494796
      25A     -0.477560    26A     -0.456179    27A     -0.442174
      28A     -0.429112    29A     -0.419819    30A     -0.412124
      31A     -0.403929    32A     -0.328952    33A     -0.318805

  @DF-RKS Final Energy:  -350.06550215178038

   => Energetics <=

    Nuclear Repulsion Energy =            419.5068638855320842
    One-Electron Energy =               -1301.5916615177377480
    Two-Electron Energy =                 568.4231723361422155
    DFT Exchange-Correlation Energy =     -36.3913120014737288
    Empirical Dispersion Energy =          -0.0125648542432856
    VV10 Nonlocal Energy =                  0.0000000000000000
    Total Energy =                       -350.0655021517804926

  Dipole Moment: [D]
     X:    -0.3171      Y:    -0.1180      Z:    -0.0585     Total:     0.3433

    Molecular point group: c1
  Basis Set: 6-311G
    Blend: 6-311G
  Basis Set: (6-311G AUX)
    Blend: CC-PVTZ-JKFIT

  -Total Gradient:
     Atom            X                  Y                   Z
    ------   -----------------  -----------------  -----------------
       1        0.000211416747    -0.001275401002    -0.003611553128
       2       -0.000892052935    -0.000007817714     0.003224989675
       3        0.000395380156     0.000833585265     0.001611111184
       4        0.000100533200     0.000703387179    -0.001284670005
       5       -0.000624262861     0.000452005978    -0.000653346201
       6       -0.000021453168    -0.000530939274     0.000392966047
       7        0.000078441585     0.000019875151     0.000078242791
       8        0.000194497052     0.000045785462    -0.000007084801
       9       -0.000019712899    -0.000008659452    -0.000104063751
      10        0.000035038058    -0.000038046776    -0.000006970244
      11        0.000063194471     0.000021297619     0.000063530136
      12        0.000010746570    -0.000033280023    -0.000039395775
      13       -0.000066349841    -0.000094272810    -0.000016691353
      14        0.000219459792    -0.000088818660     0.000501765838
      15        0.000035942534    -0.000055156117    -0.000066273331
      16        0.000022022385    -0.000035857407    -0.000150650488
      17        0.000055927720     0.000039743719    -0.000033105312
      18        0.000100682019     0.000076753309     0.000009167525
      19       -0.000029529150    -0.000017868113    -0.000042889547
      20       -0.000014224291    -0.000003546985     0.000004041341
      21       -0.000039329747    -0.000038894680    -0.000022114503

  **** Optimization is complete! (in 3 steps) ****
    Final optimized geometry and variables:
    Molecular point group: c1

    Geometry (in Angstrom), charge = 0, multiplicity = 1:

    C           -1.170072761985    -1.375554715915     0.393813083952
    C           -2.413648581923    -0.863938107569    -0.361944488279
    C            0.061522836771    -0.519297021946     0.199419448489
    C           -2.863154300845     0.542018362418     0.040451994152
    C            0.315618885955     0.584980638307     1.020352024730
    C            0.962999640024    -0.799424931767    -0.833175943585
    C            1.434334672915     1.389078420914     0.813026202475
    C            2.084007394433     0.000793352617    -1.044101960625
    C            2.322243169083     1.099830307803    -0.221452208023
    H           -0.956601399570    -2.397112380402     0.068935970250
    H           -1.406532572227    -1.429538122344     1.461736804313
    H           -2.200252241018    -0.880193700812    -1.435933470104
    H           -3.230820263032    -1.572437765316    -0.195822777037
    H           -2.080291718461     1.277828694046    -0.148543519317
    H           -3.750661330150     0.840742842990    -0.519883763839
    H           -3.109256733808     0.583543835379     1.105090119200
    H           -0.366361477450     0.811018768820     1.830597561588
    H            0.784798249952    -1.654246176686    -1.474459920512
    H            1.614142393812     2.237670599716     1.459618508755
    H            2.771238887466    -0.234984819273    -1.845812501016
    H            3.192760612131     1.721321811663    -0.381585659051

*** Psi4 exiting successfully. Buy a developer a beer!
