                               Psi4 1.3.2 release

  ==> Input File <==

--------------------------------------------------------------------------
molecule {
0 1
 C   -1.516293    0.309727    0.441485
 C   -2.250471   -0.911809   -0.181067
 C   -0.000960    0.325493    0.172288
 C   -3.767682   -0.921808    0.093488
 C    0.921743    0.381770    1.245306
 C    0.502704    0.339189   -1.151728
 C    2.308368    0.419086    1.002002
 C    1.889739    0.375980   -1.393960
 C    2.793499    0.412314   -0.317549
 H   -1.704754    0.334175    1.522812
 H   -1.949212    1.239320    0.048489
 H   -2.076364   -0.933355   -1.264515
 H   -1.797910   -1.835011    0.205487
 H   -4.250237   -0.029358   -0.319488
 H   -4.238637   -1.799141   -0.362747
 H   -3.974579   -0.954461    1.168465
 H    0.567992    0.393453    2.275297
 H   -0.178687    0.324690   -2.001039
 H    3.005894    0.453583    1.836877
 H    2.262934    0.377906   -2.416487
 H    3.865144    0.438738   -0.505132
}
set optking {
  frozen_dihedral = ("
    2 1 3 5
    2 1 3 6
    4 2 1 3
    1 2 4 14
  ")
}
set {
  geom_maxiter 400
  g_convergence GAU_LOOSE
  dynamic_level 1
}
memory 700MB
set_num_threads(8)
psi4_io.set_default_path("/home/daniele/PSI4_sctatch/Psi4-propbenzene")
for _ in range(1):
  try:
    set opt_coordinates both
    optimize('wb97x-d/6-311G')
    break
  except OptimizationConvergenceError:
    break
  else:
    try:
      set opt_coordinates cartesian
      optimize('wb97x-d/6-311G')
      break
    except OptimizationConvergenceError:
      pass
clean()
--------------------------------------------------------------------------

    Molecular point group: c1
  Charge       = 0
  Multiplicity = 1
  Basis Set: 6-311G
    Blend: 6-311G
  Basis Set: (6-311G AUX)
    Blend: CC-PVTZ-JKFIT
  @DF-RKS Final Energy:  -350.06217852695897
    Total Energy =                       -350.0621785269589736
    Molecular point group: c1
  Basis Set: 6-311G
    Blend: 6-311G
  Basis Set: (6-311G AUX)
    Blend: CC-PVTZ-JKFIT
  Basis Set: 6-311G
    Blend: 6-311G
  Basis Set: (6-311G AUX)
    Blend: CC-PVTZ-JKFIT
  @DF-RKS Final Energy:  -350.06441448672325
    Total Energy =                       -350.0644144867232512
  Basis Set: 6-311G
    Blend: 6-311G
  Basis Set: (6-311G AUX)
    Blend: CC-PVTZ-JKFIT
  Charge       = 0
  Multiplicity = 1
  Basis Set: 6-311G
    Blend: 6-311G
  Basis Set: (6-311G AUX)
    Blend: CC-PVTZ-JKFIT

    Orbital Energies [Eh]
    ---------------------

    Doubly Occupied:

       1A    -10.298142     2A    -10.288828     3A    -10.288498
       4A    -10.286526     5A    -10.286128     6A    -10.286017
       7A    -10.284866     8A    -10.281378     9A    -10.271110
      10A     -0.966004    11A     -0.901607    12A     -0.851224
      13A     -0.848268    14A     -0.779479    15A     -0.708241
      16A     -0.696478    17A     -0.671288    18A     -0.608526
      19A     -0.565308    20A     -0.547322    21A     -0.535111
      22A     -0.518857    23A     -0.509522    24A     -0.499161
      25A     -0.471911    26A     -0.458663    27A     -0.447328
      28A     -0.430485    29A     -0.419859    30A     -0.413092
      31A     -0.405365    32A     -0.328964    33A     -0.318289

  @DF-RKS Final Energy:  -350.06448678637014

   => Energetics <=

    Nuclear Repulsion Energy =            410.5862384078768059
    One-Electron Energy =               -1283.7154204227904302
    Two-Electron Energy =                 559.4667079306932465
    DFT Exchange-Correlation Energy =     -36.3904326885608214
    Empirical Dispersion Energy =          -0.0115800135889677
    VV10 Nonlocal Energy =                  0.0000000000000000
    Total Energy =                       -350.0644867863701393

  Dipole Moment: [D]
     X:    -0.3683      Y:    -0.0571      Z:    -0.0105     Total:     0.3729

    Molecular point group: c1
  Basis Set: 6-311G
    Blend: 6-311G
  Basis Set: (6-311G AUX)
    Blend: CC-PVTZ-JKFIT

  -Total Gradient:
     Atom            X                  Y                   Z
    ------   -----------------  -----------------  -----------------
       1       -0.000394675845     0.000446510204     0.001480003681
       2       -0.000206775691     0.000745102612    -0.000779215129
       3        0.000966308123    -0.003923813481    -0.000679818105
       4       -0.000270811776    -0.000014324983    -0.000040347513
       5       -0.000204952616     0.002228497949    -0.000117769900
       6       -0.000385409229     0.000800483430     0.000341652318
       7       -0.000049461602    -0.000134625263     0.000049722177
       8        0.000330360707    -0.000037478683     0.000163281397
       9       -0.000157984802    -0.000000685243    -0.000197542943
      10        0.000092420471     0.000032472349    -0.000140638933
      11        0.000085068380    -0.000067944753     0.000037260876
      12       -0.000086449277    -0.000043545131     0.000092744959
      13       -0.000016847735     0.000033221099     0.000014629630
      14        0.000107772322    -0.000146721339    -0.000027048088
      15       -0.000043464714    -0.000066336679    -0.000028284485
      16        0.000088936867    -0.000013092150    -0.000130931395
      17        0.000093351384     0.000004911218    -0.000109913041
      18        0.000195723859     0.000048653414     0.000047804599
      19       -0.000004201644     0.000017353707    -0.000064701726
      20       -0.000013822269    -0.000003822171     0.000060414767
      21       -0.000059675360     0.000028122383     0.000035538943

  **** Optimization is complete! (in 3 steps) ****
    Final optimized geometry and variables:
    Molecular point group: c1

    Geometry (in Angstrom), charge = 0, multiplicity = 1:

    C           -1.494715810466     0.234996190096     0.444602041414
    C           -2.218199431273    -0.977290815396    -0.166344827109
    C           -0.003825607099     0.260600005881     0.178591856708
    C           -3.720963648104    -0.969385402087     0.124010775473
    C            0.913055841895     0.324279925594     1.231879161799
    C            0.490242885546     0.275434846854    -1.131317832094
    C            2.284802533202     0.374126987018     0.988506945337
    C            1.859225954046     0.326049511293    -1.379735604835
    C            2.762764850515     0.372865632182    -0.319269711382
    H           -1.669722732874     0.246926164627     1.524115141997
    H           -1.948580748744     1.150873743409     0.049190821375
    H           -2.056477614615    -0.993989945022    -1.247659523853
    H           -1.766504285317    -1.892949017583     0.226071276618
    H           -4.193909300893    -0.074675551296    -0.288195320722
    H           -4.213105693745    -1.840261629998    -0.312629029796
    H           -3.911412863559    -0.981184771116     1.199815926937
    H            0.549313064213     0.328607599416     2.251954554785
    H           -0.200939060513     0.252535834001    -1.964527703517
    H            2.977224200669     0.417246639747     1.818700078755
    H            2.220373740654     0.334537218646    -2.399582649831
    H            3.826371975287     0.412865065213    -0.511036397044

*** Psi4 exiting successfully. Buy a developer a beer!
