                               Psi4 1.3.2 release

  ==> Input File <==

--------------------------------------------------------------------------
molecule {
0 1
 C   -1.118451   -1.507090    0.368611
 C   -2.502768   -0.930007   -0.079114
 C    0.054640   -0.565147    0.217724
 C   -2.489022    0.507524   -0.610055
 C    0.389597    0.330258    1.239245
 C    0.820128   -0.551361   -0.952866
 C    1.448351    1.223230    1.091982
 C    1.881100    0.338855   -1.105567
 C    2.197732    1.231087   -0.083158
 H   -0.909380   -2.414956   -0.201676
 H   -1.182335   -1.816369    1.414370
 H   -2.922304   -1.581024   -0.850113
 H   -3.194328   -0.982130    0.765626
 H   -1.851780    0.602863   -1.490735
 H   -3.499392    0.813754   -0.888815
 H   -2.116354    1.209282    0.137563
 H   -0.188637    0.326923    2.155463
 H    0.579493   -1.243744   -1.750615
 H    1.689928    1.908831    1.893339
 H    2.461151    0.333604   -2.018897
 H    3.021731    1.921983   -0.199060
}
memory 700MB
set_num_threads(8)
psi4_io.set_default_path("/home/daniele/PSI4_sctatch/Psi4-propbenzene")
set freeze_core True
E, wfn = energy('wb97x-d/6-311+G*',return_wfn=True)
oeprop(wfn,"WIBERG_LOWDIN_INDICES")
clean()
--------------------------------------------------------------------------

    Molecular point group: c1

    Geometry (in Angstrom), charge = 0, multiplicity = 1:

       Center              X                  Y                   Z               Mass
    ------------   -----------------  -----------------  -----------------  -----------------
         C           -1.118450989331    -1.507089985664     0.368611112929    12.000000000000
         C           -2.502767989331    -0.930006985664    -0.079113887071    12.000000000000
         C            0.054640010669    -0.565146985664     0.217724112929    12.000000000000
         C           -2.489021989331     0.507524014336    -0.610054887071    12.000000000000
         C            0.389597010669     0.330258014336     1.239245112929    12.000000000000
         C            0.820128010669    -0.551360985664    -0.952865887071    12.000000000000
         C            1.448351010669     1.223230014336     1.091982112929    12.000000000000
         C            1.881100010669     0.338855014336    -1.105566887071    12.000000000000
         C            2.197732010669     1.231087014336    -0.083157887071    12.000000000000
         H           -0.909379989331    -2.414955985664    -0.201675887071     1.007825032230
         H           -1.182334989331    -1.816368985664     1.414370112929     1.007825032230
         H           -2.922303989331    -1.581023985664    -0.850112887071     1.007825032230
         H           -3.194327989331    -0.982129985664     0.765626112929     1.007825032230
         H           -1.851779989331     0.602863014336    -1.490734887071     1.007825032230
         H           -3.499391989331     0.813754014336    -0.888814887071     1.007825032230
         H           -2.116353989331     1.209282014336     0.137563112929     1.007825032230
         H           -0.188636989331     0.326923014336     2.155463112929     1.007825032230
         H            0.579493010669    -1.243743985664    -1.750614887071     1.007825032230
         H            1.689928010669     1.908831014336     1.893339112929     1.007825032230
         H            2.461151010669     0.333604014336    -2.018896887071     1.007825032230
         H            3.021731010669     1.921983014336    -0.199059887071     1.007825032230

  Charge       = 0
  Multiplicity = 1
  Basis Set: 6-311+G*
    Blend: 6-311+G*
  Basis Set: (6-311+G* AUX)
    Blend: HEAVY-AUG-CC-PVTZ-JKFIT

    Orbital Energies [Eh]
    ---------------------

    Doubly Occupied:

       1A    -10.293785     2A    -10.287299     3A    -10.287229
       4A    -10.285177     5A    -10.284307     6A    -10.284241
       7A    -10.282793     8A    -10.279525     9A    -10.262940
      10A     -0.961515    11A     -0.894566    12A     -0.845712
      13A     -0.841997    14A     -0.778781    15A     -0.702200
      16A     -0.701383    17A     -0.660393    18A     -0.600613
      19A     -0.560932    20A     -0.546454    21A     -0.528395
      22A     -0.525254    23A     -0.506578    24A     -0.495088
      25A     -0.468400    26A     -0.452976    27A     -0.445983
      28A     -0.425020    29A     -0.422318    30A     -0.406237
      31A     -0.400733    32A     -0.328914    33A     -0.318645

  @DF-RKS Final Energy:  -350.13864629388587

   => Energetics <=

    Nuclear Repulsion Energy =            421.7755213011326987
    One-Electron Energy =               -1306.4409603371075264
    Two-Electron Energy =                 570.9436390396979277
    DFT Exchange-Correlation Energy =     -36.4042160377916630
    Empirical Dispersion Energy =          -0.0126302598172378
    VV10 Nonlocal Energy =                  0.0000000000000000
    Total Energy =                       -350.1386462938858131

  Dipole Moment: [D]
     X:    -0.3403      Y:    -0.1317      Z:    -0.0087     Total:     0.3650

*** Psi4 exiting successfully. Buy a developer a beer!
