                               Psi4 1.3.2 release

  ==> Input File <==

--------------------------------------------------------------------------
molecule {
0 1
 C   -1.387777   -0.719371   -0.393893
 C   -2.360568    0.016556    0.569615
 C    0.066919   -0.232944   -0.279662
 C   -3.820468   -0.467504    0.459853
 C    0.413042    1.098828   -0.615363
 C    1.098499   -1.120799    0.111649
 C    1.748928    1.537590   -0.533539
 C    2.434186   -0.681131    0.192418
 C    2.759923    0.648935   -0.126956
 H   -1.722037   -0.586577   -1.431506
 H   -1.437414   -1.800025   -0.206872
 H   -2.005261   -0.110510    1.601143
 H   -2.318506    1.096659    0.377974
 H   -3.901943   -1.533907    0.695909
 H   -4.463322    0.078128    1.158658
 H   -4.215744   -0.309686   -0.549435
 H   -0.353020    1.800440   -0.942575
 H    0.869225   -2.156593    0.358035
 H    1.999679    2.566175   -0.786449
 H    3.215966   -1.372244    0.502110
 H    3.791923    0.988458   -0.062828
}
set optking {
  frozen_dihedral = ("
    2 1 3 5
    2 1 3 6
    4 2 1 3
    1 2 4 14
  ")
}
set {
  geom_maxiter 400
  g_convergence GAU_LOOSE
  dynamic_level 1
}
memory 700MB
set_num_threads(8)
psi4_io.set_default_path("/home/daniele/PSI4_sctatch/Psi4-propbenzene")
for _ in range(1):
  try:
    set opt_coordinates both
    optimize('wb97x-d/6-311G')
    break
  except OptimizationConvergenceError:
    break
  else:
    try:
      set opt_coordinates cartesian
      optimize('wb97x-d/6-311G')
      break
    except OptimizationConvergenceError:
      pass
clean()
--------------------------------------------------------------------------

    Molecular point group: c1
  Charge       = 0
  Multiplicity = 1
  Basis Set: 6-311G
    Blend: 6-311G
  Basis Set: (6-311G AUX)
    Blend: CC-PVTZ-JKFIT
  @DF-RKS Final Energy:  -350.06242246823109
    Total Energy =                       -350.0624224682311478
    Molecular point group: c1
  Basis Set: 6-311G
    Blend: 6-311G
  Basis Set: (6-311G AUX)
    Blend: CC-PVTZ-JKFIT
  Basis Set: 6-311G
    Blend: 6-311G
  Basis Set: (6-311G AUX)
    Blend: CC-PVTZ-JKFIT
  @DF-RKS Final Energy:  -350.06463545321503
    Total Energy =                       -350.0646354532150326
  Basis Set: 6-311G
    Blend: 6-311G
  Basis Set: (6-311G AUX)
    Blend: CC-PVTZ-JKFIT
  Charge       = 0
  Multiplicity = 1
  Basis Set: 6-311G
    Blend: 6-311G
  Basis Set: (6-311G AUX)
    Blend: CC-PVTZ-JKFIT

    Orbital Energies [Eh]
    ---------------------

    Doubly Occupied:

       1A    -10.298020     2A    -10.288902     3A    -10.288562
       4A    -10.286607     5A    -10.286226     6A    -10.286129
       7A    -10.284727     8A    -10.281266     9A    -10.270997
      10A     -0.966091    11A     -0.901589    12A     -0.851079
      13A     -0.848400    14A     -0.779492    15A     -0.707319
      16A     -0.697089    17A     -0.671587    18A     -0.608365
      19A     -0.565730    20A     -0.547367    21A     -0.534151
      22A     -0.518620    23A     -0.509620    24A     -0.499970
      25A     -0.470836    26A     -0.459610    27A     -0.447436
      28A     -0.429515    29A     -0.420430    30A     -0.412667
      31A     -0.405814    32A     -0.328995    33A     -0.318319

  @DF-RKS Final Energy:  -350.06470389453830

   => Energetics <=

    Nuclear Repulsion Energy =            410.6621171490573943
    One-Electron Energy =               -1283.8683491805820722
    Two-Electron Energy =                 559.5433664091845003
    DFT Exchange-Correlation Energy =     -36.3902504635590986
    Empirical Dispersion Energy =          -0.0115878086389965
    VV10 Nonlocal Energy =                  0.0000000000000000
    Total Energy =                       -350.0647038945382405

  Dipole Moment: [D]
     X:    -0.3644      Y:    -0.0331      Z:     0.0114     Total:     0.3661

    Molecular point group: c1
  Basis Set: 6-311G
    Blend: 6-311G
  Basis Set: (6-311G AUX)
    Blend: CC-PVTZ-JKFIT

  -Total Gradient:
     Atom            X                  Y                   Z
    ------   -----------------  -----------------  -----------------
       1       -0.000180113552    -0.001438341245    -0.000589450320
       2       -0.000056933900     0.000399008911    -0.000828319940
       3        0.000024972746     0.002061554557     0.004491981718
       4       -0.000285009933    -0.000009467166    -0.000043485525
       5       -0.000178826488    -0.000737388741    -0.001042282881
       6        0.000222820829    -0.000598353136    -0.002277394625
       7        0.000362943915    -0.000082431916     0.000113938613
       8       -0.000067459530    -0.000065255674     0.000099678649
       9       -0.000169390566     0.000201588365    -0.000064810922
      10        0.000084586105    -0.000020345248     0.000073965522
      11        0.000078540139     0.000114016925    -0.000059768295
      12       -0.000019446542    -0.000022920369    -0.000034192348
      13       -0.000065554714    -0.000047579757     0.000038113722
      14        0.000048781009     0.000143444393     0.000043737550
      15       -0.000045735684     0.000043662275     0.000061846152
      16        0.000095301419     0.000022669317     0.000136887208
      17        0.000177278769    -0.000015865746    -0.000007810297
      18        0.000081865768     0.000105290095    -0.000028748973
      19       -0.000013089125    -0.000049911325     0.000016577369
      20       -0.000008389902     0.000051667156    -0.000029125463
      21       -0.000047380734    -0.000050365556    -0.000024142784

  **** Optimization is complete! (in 3 steps) ****
    Final optimized geometry and variables:
    Molecular point group: c1

    Geometry (in Angstrom), charge = 0, multiplicity = 1:

    C           -1.376025127254    -0.705885903605    -0.321236368535
    C           -2.337226844524     0.019793870745     0.636207655643
    C            0.056989369105    -0.228561607439    -0.217927899730
    C           -3.778316145727    -0.480710258991     0.513055505103
    C            0.394760423658     1.088169292526    -0.552758817989
    C            1.082433847724    -1.099417408962     0.161072869960
    C            1.713420097150     1.528996420552    -0.482247325550
    C            2.404415907624    -0.662695371010     0.234349012245
    C            2.723839000853     0.654480855917    -0.084931985876
    H           -1.731267408708    -0.568445285158    -1.348537432061
    H           -1.416824824805    -1.780382475893    -0.121365713805
    H           -1.981944503819    -0.114233512480     1.662031209505
    H           -2.304403215533     1.094947647994     0.437831901272
    H           -3.843106595836    -1.546583731645     0.744404967281
    H           -4.441801981415     0.050865889111     1.197550540816
    H           -4.156870921449    -0.336280651344    -0.501807483355
    H           -0.380312096949     1.772429249585    -0.875545468235
    H            0.842530182896    -2.126707979690     0.406082010521
    H            1.953484635277     2.551253378600    -0.742929841765
    H            3.182520192499    -1.351343653269     0.535774191478
    H            3.748900708749     0.995079806512    -0.031141040677

*** Psi4 exiting successfully. Buy a developer a beer!
