                               Psi4 1.3.2 release

  ==> Input File <==

--------------------------------------------------------------------------
molecule {
0 1
 C   -1.305436   -0.804004    0.468411
 C   -2.422090    0.089490   -0.144364
 C    0.121555   -0.293377    0.193784
 C   -3.848347   -0.427284    0.133268
 C    0.512706    1.014204    0.573392
 C    1.058832   -1.104465   -0.491723
 C    1.807615    1.489906    0.289463
 C    2.353374   -0.627456   -0.775921
 C    2.728907    0.669725   -0.384963
 H   -1.414470   -1.829420    0.091561
 H   -1.445556   -0.876029    1.555238
 H   -2.326741    1.113331    0.239144
 H   -2.260526    0.167648   -1.228113
 H   -4.050527   -0.475093    1.208670
 H   -4.594829    0.234554   -0.318479
 H   -3.994922   -1.429140   -0.284278
 H   -0.183540    1.667874    1.096370
 H    0.787341   -2.109980   -0.809914
 H    2.095779    2.494773    0.592755
 H    3.064209   -1.263186   -1.300637
 H    3.728896    1.038409   -0.605378
}
set optking {
  frozen_dihedral = ("
    2 1 3 5
    2 1 3 6
    4 2 1 3
    1 2 4 14
  ")
}
set {
  geom_maxiter 400
  g_convergence GAU_LOOSE
  dynamic_level 1
}
memory 700MB
set_num_threads(8)
psi4_io.set_default_path("/home/daniele/PSI4_sctatch/Psi4-propbenzene")
for _ in range(1):
  try:
    set opt_coordinates both
    optimize('wb97x-d/6-311G')
    break
  except OptimizationConvergenceError:
    break
  else:
    try:
      set opt_coordinates cartesian
      optimize('wb97x-d/6-311G')
      break
    except OptimizationConvergenceError:
      pass
clean()
--------------------------------------------------------------------------

    Molecular point group: c1
  Charge       = 0
  Multiplicity = 1
  Basis Set: 6-311G
    Blend: 6-311G
  Basis Set: (6-311G AUX)
    Blend: CC-PVTZ-JKFIT
  @DF-RKS Final Energy:  -350.06210750611984
    Total Energy =                       -350.0621075061198439
    Molecular point group: c1
  Basis Set: 6-311G
    Blend: 6-311G
  Basis Set: (6-311G AUX)
    Blend: CC-PVTZ-JKFIT
  Basis Set: 6-311G
    Blend: 6-311G
  Basis Set: (6-311G AUX)
    Blend: CC-PVTZ-JKFIT
  @DF-RKS Final Energy:  -350.06441009675063
    Total Energy =                       -350.0644100967506915
  Basis Set: 6-311G
    Blend: 6-311G
  Basis Set: (6-311G AUX)
    Blend: CC-PVTZ-JKFIT
  Charge       = 0
  Multiplicity = 1
  Basis Set: 6-311G
    Blend: 6-311G
  Basis Set: (6-311G AUX)
    Blend: CC-PVTZ-JKFIT

    Orbital Energies [Eh]
    ---------------------

    Doubly Occupied:

       1A    -10.298183     2A    -10.288795     3A    -10.288455
       4A    -10.286485     5A    -10.286124     6A    -10.285959
       7A    -10.284895     8A    -10.281470     9A    -10.271166
      10A     -0.966007    11A     -0.901685    12A     -0.851177
      13A     -0.848234    14A     -0.779477    15A     -0.708381
      16A     -0.696347    17A     -0.671415    18A     -0.608568
      19A     -0.565300    20A     -0.547271    21A     -0.535140
      22A     -0.518942    23A     -0.509482    24A     -0.499130
      25A     -0.471799    26A     -0.458726    27A     -0.447019
      28A     -0.430621    29A     -0.419902    30A     -0.413369
      31A     -0.405278    32A     -0.328958    33A     -0.318288

  @DF-RKS Final Energy:  -350.06449053113198

   => Energetics <=

    Nuclear Repulsion Energy =            410.8862364323588849
    One-Electron Energy =               -1284.3148632490956516
    Two-Electron Energy =                 559.7663214497135868
    DFT Exchange-Correlation Energy =     -36.3905818786150803
    Empirical Dispersion Energy =          -0.0116032854937021
    VV10 Nonlocal Energy =                  0.0000000000000000
    Total Energy =                       -350.0644905311320372

  Dipole Moment: [D]
     X:    -0.3876      Y:    -0.0143      Z:     0.0043     Total:     0.3879

    Molecular point group: c1
  Basis Set: 6-311G
    Blend: 6-311G
  Basis Set: (6-311G AUX)
    Blend: CC-PVTZ-JKFIT

  -Total Gradient:
     Atom            X                  Y                   Z
    ------   -----------------  -----------------  -----------------
       1       -0.000989476234    -0.000840717708    -0.002921673366
       2       -0.000014042055     0.000422520851     0.001186115117
       3        0.002138247820    -0.000595624081     0.004091818575
       4       -0.000265025323     0.000086039018     0.000151372010
       5       -0.000929567232     0.000383082329    -0.001945097072
       6       -0.000295058778     0.000189367988    -0.000248639943
       7        0.000296188113    -0.000085672012    -0.000191740425
       8       -0.000093678413     0.000034215771    -0.000117415861
       9       -0.000173474256     0.000126966567     0.000121807634
      10        0.000092836930     0.000132061624     0.000064600542
      11        0.000083962979     0.000006365190    -0.000106073859
      12       -0.000116519929    -0.000094282803    -0.000065571174
      13        0.000004425933    -0.000037243588     0.000031821193
      14        0.000056969430     0.000080211966    -0.000143476783
      15       -0.000060618137     0.000039437833    -0.000039134206
      16        0.000070986227     0.000139502351     0.000028661496
      17        0.000230892784    -0.000042654335    -0.000024091120
      18        0.000086470211     0.000117849029     0.000036510704
      19       -0.000014841054    -0.000060236482    -0.000037082458
      20       -0.000005597333     0.000060549216     0.000042054781
      21       -0.000043349959    -0.000064941598     0.000039241587

  **** Optimization is complete! (in 3 steps) ****
    Final optimized geometry and variables:
    Molecular point group: c1

    Geometry (in Angstrom), charge = 0, multiplicity = 1:

    C           -1.301770456968    -0.780833229554     0.462775893783
    C           -2.402501428141     0.100228088634    -0.152283868783
    C            0.103683475274    -0.279184467852     0.202519020307
    C           -3.807461900828    -0.437276068830     0.130083845299
    C            0.486732061903     1.013882643269     0.578611268039
    C            1.037372153197    -1.077179067726    -0.465104388992
    C            1.767168443934     1.488768068543     0.307754227455
    C            2.320224145763    -0.605938324985    -0.739788276451
    C            2.689632600649     0.679789649168    -0.353712240904
    H           -1.399956545721    -1.798093388227     0.073509349790
    H           -1.471563901182    -0.848459322058     1.543668444370
    H           -2.318088103054     1.118274098316     0.237186081215
    H           -2.237940640299     0.169317013850    -1.231449471584
    H           -3.999377319312    -0.483992400607     1.204807593061
    H           -4.571960648175     0.198574794066    -0.319915539868
    H           -3.929395219440    -1.445052395811    -0.274003399068
    H           -0.217509182511     1.651654083561     1.097825092756
    H            0.756351063928    -2.076562587021    -0.773519827031
    H            2.044412552051     2.489500016789     0.611450960030
    H            3.027323910730    -1.241105105880    -1.256574113097
    H            3.683964252095     1.048385151563    -0.565966360994

*** Psi4 exiting successfully. Buy a developer a beer!
