                               Psi4 1.3.2 release

  ==> Input File <==

--------------------------------------------------------------------------
molecule {
0 1
 C   -1.170073   -1.375555    0.393813
 C   -2.413649   -0.863938   -0.361944
 C    0.061523   -0.519297    0.199419
 C   -2.863154    0.542018    0.040452
 C    0.315619    0.584981    1.020352
 C    0.963000   -0.799425   -0.833176
 C    1.434335    1.389078    0.813026
 C    2.084007    0.000793   -1.044102
 C    2.322243    1.099830   -0.221452
 H   -0.956601   -2.397112    0.068936
 H   -1.406533   -1.429538    1.461737
 H   -2.200252   -0.880194   -1.435933
 H   -3.230820   -1.572438   -0.195823
 H   -2.080292    1.277829   -0.148544
 H   -3.750661    0.840743   -0.519884
 H   -3.109257    0.583544    1.105090
 H   -0.366361    0.811019    1.830598
 H    0.784798   -1.654246   -1.474460
 H    1.614142    2.237671    1.459619
 H    2.771239   -0.234985   -1.845813
 H    3.192761    1.721322   -0.381586
}
memory 700MB
set_num_threads(8)
psi4_io.set_default_path("/home/daniele/PSI4_sctatch/Psi4-propbenzene")
set freeze_core True
E, wfn = energy('wb97x-d/6-311+G*',return_wfn=True)
oeprop(wfn,"WIBERG_LOWDIN_INDICES")
clean()
--------------------------------------------------------------------------

    Molecular point group: c1

    Geometry (in Angstrom), charge = 0, multiplicity = 1:

       Center              X                  Y                   Z               Mass
    ------------   -----------------  -----------------  -----------------  -----------------
         C           -1.170073009525    -1.375554881467     0.393813018281    12.000000000000
         C           -2.413649009525    -0.863937881467    -0.361943981719    12.000000000000
         C            0.061522990475    -0.519296881467     0.199419018281    12.000000000000
         C           -2.863154009525     0.542018118533     0.040452018281    12.000000000000
         C            0.315618990475     0.584981118533     1.020352018281    12.000000000000
         C            0.962999990475    -0.799424881467    -0.833175981719    12.000000000000
         C            1.434334990475     1.389078118533     0.813026018281    12.000000000000
         C            2.084006990475     0.000793118533    -1.044101981719    12.000000000000
         C            2.322242990475     1.099830118533    -0.221451981719    12.000000000000
         H           -0.956601009525    -2.397111881467     0.068936018281     1.007825032230
         H           -1.406533009525    -1.429537881467     1.461737018281     1.007825032230
         H           -2.200252009525    -0.880193881467    -1.435932981719     1.007825032230
         H           -3.230820009525    -1.572437881467    -0.195822981719     1.007825032230
         H           -2.080292009525     1.277829118533    -0.148543981719     1.007825032230
         H           -3.750661009525     0.840743118533    -0.519883981719     1.007825032230
         H           -3.109257009525     0.583544118533     1.105090018281     1.007825032230
         H           -0.366361009525     0.811019118533     1.830598018281     1.007825032230
         H            0.784797990475    -1.654245881467    -1.474459981719     1.007825032230
         H            1.614141990475     2.237671118533     1.459619018281     1.007825032230
         H            2.771238990475    -0.234984881467    -1.845812981719     1.007825032230
         H            3.192760990475     1.721322118533    -0.381585981719     1.007825032230

  Charge       = 0
  Multiplicity = 1
  Basis Set: 6-311+G*
    Blend: 6-311+G*
  Basis Set: (6-311+G* AUX)
    Blend: HEAVY-AUG-CC-PVTZ-JKFIT

    Orbital Energies [Eh]
    ---------------------

    Doubly Occupied:

       1A    -10.294089     2A    -10.287205     3A    -10.287104
       4A    -10.285189     5A    -10.284766     6A    -10.284574
       7A    -10.283325     8A    -10.280089     9A    -10.265886
      10A     -0.961801    11A     -0.898174    12A     -0.846209
      13A     -0.843594    14A     -0.779138    15A     -0.704344
      16A     -0.698013    17A     -0.663798    18A     -0.603044
      19A     -0.558015    20A     -0.551744    21A     -0.534481
      22A     -0.518721    23A     -0.506180    24A     -0.492226
      25A     -0.476382    26A     -0.455208    27A     -0.442198
      28A     -0.428854    29A     -0.419954    30A     -0.412869
      31A     -0.404467    32A     -0.328720    33A     -0.318966

  @DF-RKS Final Energy:  -350.14561504062920

   => Energetics <=

    Nuclear Repulsion Energy =            419.5068727566329585
    One-Electron Energy =               -1301.8511547971820619
    Two-Electron Energy =                 568.6166751528926397
    DFT Exchange-Correlation Energy =     -36.4054433004038884
    Empirical Dispersion Energy =          -0.0125648525686854
    VV10 Nonlocal Energy =                  0.0000000000000000
    Total Energy =                       -350.1456150406290817

  Dipole Moment: [D]
     X:    -0.3504      Y:    -0.1516      Z:    -0.0554     Total:     0.3858

*** Psi4 exiting successfully. Buy a developer a beer!
