                               Psi4 1.3.2 release

  ==> Input File <==

--------------------------------------------------------------------------
molecule {
0 1
 C   -1.522935    0.346103    0.271488
 C   -2.175215   -1.027553    0.033907
 C   -0.023208    0.318300    0.078894
 C   -3.692871   -1.002967    0.229529
 C    0.835809    0.112661    1.163135
 C    0.539177    0.549141   -1.180864
 C    2.217973    0.095490    0.987719
 C    1.920356    0.533633   -1.361607
 C    2.764639    0.302609   -0.277130
 H   -1.758015    0.682541    1.285684
 H   -1.968455    1.075707   -0.411647
 H   -1.934765   -1.363858   -0.979221
 H   -1.722998   -1.755533    0.714266
 H   -4.165158   -0.303744   -0.464809
 H   -4.130015   -1.988914    0.061800
 H   -3.950884   -0.689714    1.244085
 H    0.417330   -0.038170    2.150904
 H   -0.111538    0.741095   -2.025540
 H    2.866357   -0.070864    1.837711
 H    2.336583    0.710217   -2.344532
 H    3.837339    0.293417   -0.414675
}
memory 700MB
set_num_threads(8)
psi4_io.set_default_path("/home/daniele/PSI4_sctatch/Psi4-propbenzene")
set freeze_core True
E, wfn = energy('wb97x-d/6-311+G*',return_wfn=True)
oeprop(wfn,"WIBERG_LOWDIN_INDICES")
clean()
--------------------------------------------------------------------------

    Molecular point group: c1

    Geometry (in Angstrom), charge = 0, multiplicity = 1:

       Center              X                  Y                   Z               Mass
    ------------   -----------------  -----------------  -----------------  -----------------
         C           -1.522935055414     0.346103039792     0.271488035185    12.000000000000
         C           -2.175215055414    -1.027552960208     0.033907035185    12.000000000000
         C           -0.023208055414     0.318300039792     0.078894035185    12.000000000000
         C           -3.692871055414    -1.002966960208     0.229529035185    12.000000000000
         C            0.835808944586     0.112661039792     1.163135035185    12.000000000000
         C            0.539176944586     0.549141039792    -1.180863964815    12.000000000000
         C            2.217972944586     0.095490039792     0.987719035185    12.000000000000
         C            1.920355944586     0.533633039792    -1.361606964815    12.000000000000
         C            2.764638944586     0.302609039792    -0.277129964815    12.000000000000
         H           -1.758015055414     0.682541039792     1.285684035185     1.007825032230
         H           -1.968455055414     1.075707039792    -0.411646964815     1.007825032230
         H           -1.934765055414    -1.363857960208    -0.979220964815     1.007825032230
         H           -1.722998055414    -1.755532960208     0.714266035185     1.007825032230
         H           -4.165158055414    -0.303743960208    -0.464808964815     1.007825032230
         H           -4.130015055414    -1.988913960208     0.061800035185     1.007825032230
         H           -3.950884055414    -0.689713960208     1.244085035185     1.007825032230
         H            0.417329944586    -0.038169960208     2.150904035185     1.007825032230
         H           -0.111538055414     0.741095039792    -2.025539964815     1.007825032230
         H            2.866356944586    -0.070863960208     1.837711035185     1.007825032230
         H            2.336582944586     0.710217039792    -2.344531964815     1.007825032230
         H            3.837338944586     0.293417039792    -0.414674964815     1.007825032230

  Charge       = 0
  Multiplicity = 1
  Basis Set: 6-311+G*
    Blend: 6-311+G*
  Basis Set: (6-311+G* AUX)
    Blend: HEAVY-AUG-CC-PVTZ-JKFIT

    Orbital Energies [Eh]
    ---------------------

    Doubly Occupied:

       1A    -10.294438     2A    -10.287115     3A    -10.287039
       4A    -10.284978     5A    -10.284736     6A    -10.284705
       7A    -10.283207     8A    -10.279607     9A    -10.269878
      10A     -0.961720    11A     -0.898791    12A     -0.847592
      13A     -0.845738    14A     -0.776644    15A     -0.701512
      16A     -0.697409    17A     -0.669831    18A     -0.605115
      19A     -0.564437    20A     -0.548418    21A     -0.528709
      22A     -0.515686    23A     -0.506938    24A     -0.500111
      25A     -0.464592    26A     -0.463636    27A     -0.446784
      28A     -0.425677    29A     -0.423532    30A     -0.410897
      31A     -0.409041    32A     -0.328799    33A     -0.318574

  @DF-RKS Final Energy:  -350.14546767196407

   => Energetics <=

    Nuclear Repulsion Energy =            410.7813599024428299
    One-Electron Energy =               -1284.3699636992275828
    Two-Electron Energy =                 559.8582019669997862
    DFT Exchange-Correlation Energy =     -36.4035052067573659
    Empirical Dispersion Energy =          -0.0115606354216523
    VV10 Nonlocal Energy =                  0.0000000000000000
    Total Energy =                       -350.1454676719640133

  Dipole Moment: [D]
     X:    -0.3529      Y:    -0.0926      Z:     0.0188     Total:     0.3653

*** Psi4 exiting successfully. Buy a developer a beer!
