                               Psi4 1.3.2 release

  ==> Input File <==

--------------------------------------------------------------------------
molecule {
0 1
 C   -1.385976   -0.275182    0.715056
 C   -2.389359   -0.437472   -0.465298
 C    0.085015    0.001625    0.325606
 C   -3.837248   -0.707365   -0.008670
 C    0.885877    0.830085    1.152031
 C    0.658700   -0.506823   -0.867514
 C    2.218594    1.126449    0.806513
 C    1.991911   -0.208976   -1.211789
 C    2.773313    0.606037   -0.375158
 H   -1.406580   -1.182509    1.333385
 H   -1.742531    0.531968    1.368984
 H   -2.355882    0.465391   -1.089755
 H   -2.065549   -1.261933   -1.112344
 H   -4.217625    0.114291    0.607589
 H   -4.502251   -0.812565   -0.872462
 H   -3.902170   -1.631188    0.576147
 H    0.475987    1.249144    2.070341
 H    0.085173   -1.142019   -1.538919
 H    2.820578    1.760441    1.455049
 H    2.418589   -0.612141   -2.128628
 H    3.803663    0.833223   -0.641881
}
set optking {
  frozen_dihedral = ("
    2 1 3 5
    2 1 3 6
    4 2 1 3
    1 2 4 14
  ")
}
set {
  geom_maxiter 400
  g_convergence GAU_LOOSE
  dynamic_level 1
}
memory 700MB
set_num_threads(8)
psi4_io.set_default_path("/home/daniele/PSI4_sctatch/Psi4-propbenzene")
for _ in range(1):
  try:
    set opt_coordinates both
    optimize('wb97x-d/6-311G')
    break
  except OptimizationConvergenceError:
    break
  else:
    try:
      set opt_coordinates cartesian
      optimize('wb97x-d/6-311G')
      break
    except OptimizationConvergenceError:
      pass
clean()
--------------------------------------------------------------------------

    Molecular point group: c1
  Charge       = 0
  Multiplicity = 1
  Basis Set: 6-311G
    Blend: 6-311G
  Basis Set: (6-311G AUX)
    Blend: CC-PVTZ-JKFIT
  @DF-RKS Final Energy:  -350.06058988911337
    Total Energy =                       -350.0605898891133734
    Molecular point group: c1
  Basis Set: 6-311G
    Blend: 6-311G
  Basis Set: (6-311G AUX)
    Blend: CC-PVTZ-JKFIT
  Basis Set: 6-311G
    Blend: 6-311G
  Basis Set: (6-311G AUX)
    Blend: CC-PVTZ-JKFIT
  @DF-RKS Final Energy:  -350.06315196670738
    Total Energy =                       -350.0631519667073235
  Basis Set: 6-311G
    Blend: 6-311G
  Basis Set: (6-311G AUX)
    Blend: CC-PVTZ-JKFIT
  Charge       = 0
  Multiplicity = 1
  Basis Set: 6-311G
    Blend: 6-311G
  Basis Set: (6-311G AUX)
    Blend: CC-PVTZ-JKFIT

    Orbital Energies [Eh]
    ---------------------

    Doubly Occupied:

       1A    -10.298794     2A    -10.288067     3A    -10.288000
       4A    -10.285793     5A    -10.285661     6A    -10.285356
       7A    -10.285226     8A    -10.282165     9A    -10.271887
      10A     -0.965569    11A     -0.902080    12A     -0.851957
      13A     -0.847524    14A     -0.779615    15A     -0.712390
      16A     -0.693967    17A     -0.669457    18A     -0.609142
      19A     -0.563005    20A     -0.546917    21A     -0.540418
      22A     -0.520450    23A     -0.508863    24A     -0.494141
      25A     -0.478032    26A     -0.454482    27A     -0.446572
      28A     -0.433805    29A     -0.418087    30A     -0.414004
      31A     -0.405205    32A     -0.328466    33A     -0.317959

  @DF-RKS Final Energy:  -350.06327128032081

   => Energetics <=

    Nuclear Repulsion Energy =            410.3637477429488740
    One-Electron Energy =               -1283.2645136008738973
    Two-Electron Energy =                 559.2411716866946563
    DFT Exchange-Correlation Energy =     -36.3921202245312259
    Empirical Dispersion Energy =          -0.0115568845590603
    VV10 Nonlocal Energy =                  0.0000000000000000
    Total Energy =                       -350.0632712803207482

  Dipole Moment: [D]
     X:    -0.4336      Y:    -0.0745      Z:     0.0127     Total:     0.4402

    Molecular point group: c1
  Basis Set: 6-311G
    Blend: 6-311G
  Basis Set: (6-311G AUX)
    Blend: CC-PVTZ-JKFIT

  -Total Gradient:
     Atom            X                  Y                   Z
    ------   -----------------  -----------------  -----------------
       1       -0.001533056262     0.003268927643    -0.000701183356
       2       -0.000528527969     0.000325207534     0.000155005790
       3        0.003264325455    -0.005760370076     0.003064354158
       4        0.000111741020    -0.001130492483    -0.000035294946
       5       -0.000843348337     0.000851528732    -0.001188599924
       6       -0.000518448571     0.002020726998    -0.001059506801
       7        0.000083660145    -0.000021657753    -0.000444551075
       8       -0.000077490685     0.000143394204     0.000144608510
       9       -0.000251938843    -0.000047308392     0.000264557463
      10       -0.000028898313     0.000168063291    -0.000170909167
      11        0.000118601277    -0.000135529768    -0.000165121160
      12        0.000081121180    -0.000033542361     0.000101206235
      13       -0.000278095421     0.000113392120     0.000255879324
      14        0.000110704742    -0.000073730911    -0.000201562463
      15       -0.000103838422    -0.000018851379    -0.000067490926
      16        0.000035835519     0.000150025463    -0.000139052189
      17        0.000099509572    -0.000047602864    -0.000189663709
      18        0.000497596028     0.000232396420     0.000180815652
      19       -0.000050613853    -0.000064063480    -0.000087919844
      20       -0.000005733378     0.000082172186     0.000139578033
      21       -0.000112989447    -0.000028245330     0.000048820054

  **** Optimization is complete! (in 3 steps) ****
    Final optimized geometry and variables:
    Molecular point group: c1

    Geometry (in Angstrom), charge = 0, multiplicity = 1:

    C           -1.384745099406    -0.303364931708     0.670919554607
    C           -2.361305857317    -0.461816357089    -0.502436281874
    C            0.062499502132    -0.026220151196     0.303498422750
    C           -3.791183881782    -0.733949816524    -0.027909806723
    C            0.840120293417     0.791277495146     1.131900883228
    C            0.647467908791    -0.518836968189    -0.867883842848
    C            2.165859449660     1.082061706755     0.821824541441
    C            1.973827903285    -0.229402997642    -1.183371911045
    C            2.739793413789     0.569705072769    -0.339195141018
    H           -1.429046786383    -1.214474572904     1.280403639830
    H           -1.740561032607     0.504815195475     1.316812390337
    H           -2.332753116846     0.440732012156    -1.119479633846
    H           -2.043960528021    -1.288067338768    -1.143285167658
    H           -4.161526742220     0.086515923246     0.591215464596
    H           -4.473253430784    -0.850102040423    -0.871970875915
    H           -3.836002620296    -1.648294081962     0.568376289185
    H            0.399183970321     1.203861513778     2.031077170258
    H            0.072883239776    -1.137577396822    -1.542546210378
    H            2.746454825120     1.713789176441     1.480739127776
    H            2.405781095914    -0.625310875557    -2.092789198967
    H            3.767937436011     0.796464021727    -0.586025541923

*** Psi4 exiting successfully. Buy a developer a beer!
