                               Psi4 1.3.2 release

  ==> Input File <==

--------------------------------------------------------------------------
molecule {
0 1
 C   -1.273715   -0.861094    0.505060
 C   -2.351720   -0.280339   -0.439044
 C    0.106676   -0.305073    0.237066
 C   -3.739925   -0.227776    0.204351
 C    0.523062    0.886356    0.840303
 C    0.977057   -0.938979   -0.655151
 C    1.773842    1.431187    0.559103
 C    2.229205   -0.397560   -0.940195
 C    2.631168    0.790690   -0.333862
 H   -1.263195   -1.951675    0.433097
 H   -1.551033   -0.623479    1.537254
 H   -2.057167    0.734309   -0.722476
 H   -2.380270   -0.858979   -1.366412
 H   -3.724978    0.401260    1.097413
 H   -4.481886    0.179956   -0.484581
 H   -4.074968   -1.223405    0.506044
 H   -0.137365    1.387115    1.538035
 H    0.671371   -1.865211   -1.126242
 H    2.080057    2.351836    1.037887
 H    2.889729   -0.902952   -1.632213
 H    3.603479    1.211372   -0.551465
}
memory 700MB
set_num_threads(8)
psi4_io.set_default_path("/home/daniele/PSI4_sctatch/Psi4-propbenzene")
set freeze_core True
E, wfn = energy('wb97x-d/6-311+G*',return_wfn=True)
oeprop(wfn,"WIBERG_LOWDIN_INDICES")
clean()
--------------------------------------------------------------------------

    Molecular point group: c1

    Geometry (in Angstrom), charge = 0, multiplicity = 1:

       Center              X                  Y                   Z               Mass
    ------------   -----------------  -----------------  -----------------  -----------------
         C           -1.273714903788    -0.861094125842     0.505060023924    12.000000000000
         C           -2.351719903788    -0.280339125842    -0.439043976076    12.000000000000
         C            0.106676096212    -0.305073125842     0.237066023924    12.000000000000
         C           -3.739924903788    -0.227776125842     0.204351023924    12.000000000000
         C            0.523062096212     0.886355874158     0.840303023924    12.000000000000
         C            0.977057096212    -0.938979125842    -0.655150976076    12.000000000000
         C            1.773842096212     1.431186874158     0.559103023924    12.000000000000
         C            2.229205096212    -0.397560125842    -0.940194976076    12.000000000000
         C            2.631168096212     0.790689874158    -0.333861976076    12.000000000000
         H           -1.263194903788    -1.951675125842     0.433097023924     1.007825032230
         H           -1.551032903788    -0.623479125842     1.537254023924     1.007825032230
         H           -2.057166903788     0.734308874158    -0.722475976076     1.007825032230
         H           -2.380269903788    -0.858979125842    -1.366411976076     1.007825032230
         H           -3.724977903788     0.401259874158     1.097413023924     1.007825032230
         H           -4.481885903788     0.179955874158    -0.484580976076     1.007825032230
         H           -4.074967903788    -1.223405125842     0.506044023924     1.007825032230
         H           -0.137364903788     1.387114874158     1.538035023924     1.007825032230
         H            0.671371096212    -1.865211125842    -1.126241976076     1.007825032230
         H            2.080057096212     2.351835874158     1.037887023924     1.007825032230
         H            2.889729096212    -0.902952125842    -1.632212976076     1.007825032230
         H            3.603479096212     1.211371874158    -0.551464976076     1.007825032230

  Charge       = 0
  Multiplicity = 1
  Basis Set: 6-311+G*
    Blend: 6-311+G*
  Basis Set: (6-311+G* AUX)
    Blend: HEAVY-AUG-CC-PVTZ-JKFIT

    Orbital Energies [Eh]
    ---------------------

    Doubly Occupied:

       1A    -10.294332     2A    -10.287200     3A    -10.286997
       4A    -10.284859     5A    -10.284601     6A    -10.284365
       7A    -10.283067     8A    -10.279481     9A    -10.270052
      10A     -0.961584    11A     -0.897880    12A     -0.847345
      13A     -0.845607    14A     -0.776467    15A     -0.701470
      16A     -0.697732    17A     -0.669866    18A     -0.604954
      19A     -0.562860    20A     -0.548582    21A     -0.529304
      22A     -0.515830    23A     -0.506858    24A     -0.497779
      25A     -0.471756    26A     -0.459622    27A     -0.444203
      28A     -0.427132    29A     -0.422360    30A     -0.411131
      31A     -0.407151    32A     -0.328897    33A     -0.318270

  @DF-RKS Final Energy:  -350.14301985234113

   => Energetics <=

    Nuclear Repulsion Energy =            411.4541392008249545
    One-Electron Energy =               -1285.7236692409369425
    Two-Electron Energy =                 560.5408968641920637
    DFT Exchange-Correlation Energy =     -36.4028258065048647
    Empirical Dispersion Energy =          -0.0115608699163966
    VV10 Nonlocal Energy =                  0.0000000000000000
    Total Energy =                       -350.1430198523411832

  Dipole Moment: [D]
     X:    -0.3868      Y:    -0.0624      Z:    -0.0668     Total:     0.3974

*** Psi4 exiting successfully. Buy a developer a beer!
