                               Psi4 1.3.2 release

  ==> Input File <==

--------------------------------------------------------------------------
molecule {
0 1
 C   -1.249847   -1.499766    0.398197
 C   -2.584038   -0.969029   -0.214878
 C   -0.031895   -0.576105    0.231192
 C   -2.759710    0.565749   -0.239773
 C    0.245869    0.440981    1.176588
 C    0.822075   -0.711542   -0.889109
 C    1.354585    1.293117    1.010084
 C    1.931809    0.140143   -1.053820
 C    2.199335    1.142276   -0.103989
 H   -1.027846   -2.496968   -0.004304
 H   -1.403732   -1.670328    1.472406
 H   -2.649684   -1.338168   -1.247568
 H   -3.429625   -1.441347    0.302777
 H   -1.975325    1.052546   -0.828781
 H   -3.722486    0.837159   -0.685544
 H   -2.734477    0.982026    0.772612
 H   -0.398577    0.574687    2.044286
 H    0.627500   -1.478593   -1.637415
 H    1.558037    2.070180    1.744623
 H    2.583350    0.023165   -1.917877
 H    3.056912    1.800297   -0.231424
}
set optking {
  frozen_dihedral = ("
    4 2 1 3
    2 1 3 5
    2 1 3 6
    1 2 4 14
  ")
}
set {
  geom_maxiter 400
  g_convergence GAU_LOOSE
  dynamic_level 1
}
memory 700MB
set_num_threads(8)
psi4_io.set_default_path("/home/daniele/PSI4_sctatch/Psi4-propbenzene")
for _ in range(1):
  try:
    set opt_coordinates both
    optimize('wb97x-d/6-311G')
    break
  except OptimizationConvergenceError:
    break
  else:
    try:
      set opt_coordinates cartesian
      optimize('wb97x-d/6-311G')
      break
    except OptimizationConvergenceError:
      pass
clean()
--------------------------------------------------------------------------

    Molecular point group: c1
  Charge       = 0
  Multiplicity = 1
  Basis Set: 6-311G
    Blend: 6-311G
  Basis Set: (6-311G AUX)
    Blend: CC-PVTZ-JKFIT
  @DF-RKS Final Energy:  -350.05951976384307
    Total Energy =                       -350.0595197638430705
    Molecular point group: c1
  Basis Set: 6-311G
    Blend: 6-311G
  Basis Set: (6-311G AUX)
    Blend: CC-PVTZ-JKFIT
  Basis Set: 6-311G
    Blend: 6-311G
  Basis Set: (6-311G AUX)
    Blend: CC-PVTZ-JKFIT
  @DF-RKS Final Energy:  -350.06187605933690
    Total Energy =                       -350.0618760593368393
  Basis Set: 6-311G
    Blend: 6-311G
  Basis Set: (6-311G AUX)
    Blend: CC-PVTZ-JKFIT
  Charge       = 0
  Multiplicity = 1
  Basis Set: 6-311G
    Blend: 6-311G
  Basis Set: (6-311G AUX)
    Blend: CC-PVTZ-JKFIT

    Orbital Energies [Eh]
    ---------------------

    Doubly Occupied:

       1A    -10.297222     2A    -10.288976     3A    -10.288893
       4A    -10.286949     5A    -10.286117     6A    -10.286038
       7A    -10.284226     8A    -10.281348     9A    -10.264813
      10A     -0.966160    11A     -0.898931    12A     -0.848901
      13A     -0.845575    14A     -0.782054    15A     -0.706229
      16A     -0.701780    17A     -0.664228    18A     -0.603760
      19A     -0.562711    20A     -0.548665    21A     -0.533059
      22A     -0.523641    23A     -0.509120    24A     -0.497752
      25A     -0.471987    26A     -0.454564    27A     -0.445082
      28A     -0.426098    29A     -0.421529    30A     -0.407368
      31A     -0.402561    32A     -0.329107    33A     -0.318501

  @DF-RKS Final Energy:  -350.06194015138283

   => Energetics <=

    Nuclear Repulsion Energy =            421.3334560240338078
    One-Electron Energy =               -1305.2777932500382576
    Two-Electron Energy =                 570.2861056532024122
    DFT Exchange-Correlation Energy =     -36.3910227668798996
    Empirical Dispersion Energy =          -0.0126858117008349
    VV10 Nonlocal Energy =                  0.0000000000000000
    Total Energy =                       -350.0619401513828279

  Dipole Moment: [D]
     X:    -0.3211      Y:    -0.0982      Z:    -0.0437     Total:     0.3386

    Molecular point group: c1
  Basis Set: 6-311G
    Blend: 6-311G
  Basis Set: (6-311G AUX)
    Blend: CC-PVTZ-JKFIT

  -Total Gradient:
     Atom            X                  Y                   Z
    ------   -----------------  -----------------  -----------------
       1        0.001179533710    -0.003069254921    -0.008198992724
       2       -0.002188583611     0.000921831517     0.007614470512
       3       -0.000502160081     0.002343061498     0.003765775640
       4        0.001296537647     0.000324752597    -0.003307418201
       5       -0.000558018163     0.000447533433    -0.000451110132
       6        0.000258927615    -0.000701507973     0.000461934102
       7        0.000134904045     0.000018416292     0.000001342745
       8        0.000177919688     0.000012040727     0.000005887320
       9       -0.000071099972     0.000014295998    -0.000006554905
      10        0.000055013691     0.000000783299    -0.000036692402
      11        0.000010929110    -0.000069442204     0.000162719951
      12       -0.000019463960    -0.000109313528    -0.000064947180
      13       -0.000006736031    -0.000100342406     0.000041228533
      14        0.000075930819    -0.000017695614     0.000107393246
      15        0.000031936767    -0.000049627723     0.000002565303
      16       -0.000011093528    -0.000053634838    -0.000030105577
      17        0.000068514922     0.000017639346    -0.000043986382
      18        0.000089488968     0.000106998065     0.000024100508
      19       -0.000025458871    -0.000033488809    -0.000009076571
      20       -0.000015434617     0.000048009818     0.000023788912
      21       -0.000041662128    -0.000017676362     0.000007092168

  **** Optimization is complete! (in 3 steps) ****
    Final optimized geometry and variables:
    Molecular point group: c1

    Geometry (in Angstrom), charge = 0, multiplicity = 1:

    C           -1.143732754555    -1.462823763780     0.381141521769
    C           -2.466161624111    -0.930521303098    -0.234096389355
    C            0.053140394339    -0.553805375994     0.208935349724
    C           -2.616568117827     0.592873714180    -0.259639244609
    C            0.331156795645     0.458772748592     1.133285749054
    C            0.897831174952    -0.691519999131    -0.897549863439
    C            1.414947694067     1.314844173347     0.953264838852
    C            1.983540454620     0.162323220486    -1.082925843539
    C            2.244200988428     1.170715754283    -0.157655558247
    H           -0.924495470115    -2.446323161006    -0.040133851550
    H           -1.297662778926    -1.616851810956     1.454128472242
    H           -2.535908903925    -1.291053402895    -1.265864798897
    H           -3.305074380979    -1.381910877307     0.302026763293
    H           -1.823434411354     1.056667562593    -0.846619075495
    H           -3.575500464147     0.870892819313    -0.700998651826
    H           -2.574157350816     1.020965788198     0.744806391374
    H           -0.305627405517     0.573854457092     2.001643011614
    H            0.701022822242    -1.474952627780    -1.619262828474
    H            1.613608775034     2.091263533853     1.680050041737
    H            2.625028111921     0.038841402817    -1.945389703395
    H            3.087008046321     1.833966618432    -0.297342092738

*** Psi4 exiting successfully. Buy a developer a beer!
