                               Psi4 1.3.2 release

  ==> Input File <==

--------------------------------------------------------------------------
molecule {
0 1
 C   -1.315341   -0.508871    0.798514
 C   -2.397765    0.126224   -0.104996
 C    0.089461   -0.154610    0.366136
 C   -3.675967   -0.712810   -0.183825
 C    0.701897    1.020931    0.812685
 C    0.784219   -0.965850   -0.536681
 C    1.973420    1.378455    0.369068
 C    2.056117   -0.612957   -0.982647
 C    2.654533    0.561987   -0.531611
 H   -1.427350   -1.597262    0.765447
 H   -1.478094   -0.214718    1.838718
 H   -2.623501    1.137345    0.244798
 H   -1.987695    0.237639   -1.112945
 H   -4.129035   -0.840296    0.802525
 H   -4.418019   -0.242821   -0.832033
 H   -3.459973   -1.705952   -0.584154
 H    0.178455    1.657546    1.515604
 H    0.325437   -1.881727   -0.889214
 H    2.431986    2.290825    0.726703
 H    2.579569   -1.254713   -1.678871
 H    3.642442    0.836504   -0.875665
}
memory 700MB
set_num_threads(8)
psi4_io.set_default_path("/home/daniele/PSI4_sctatch/Psi4-propbenzene")
set freeze_core True
E, wfn = energy('wb97x-d/6-311+G*',return_wfn=True)
oeprop(wfn,"WIBERG_LOWDIN_INDICES")
clean()
--------------------------------------------------------------------------

    Molecular point group: c1

    Geometry (in Angstrom), charge = 0, multiplicity = 1:

       Center              X                  Y                   Z               Mass
    ------------   -----------------  -----------------  -----------------  -----------------
         C           -1.315340978792    -0.508871108202     0.798513915552    12.000000000000
         C           -2.397764978792     0.126223891798    -0.104996084448    12.000000000000
         C            0.089461021208    -0.154610108202     0.366135915552    12.000000000000
         C           -3.675966978792    -0.712810108202    -0.183825084448    12.000000000000
         C            0.701897021208     1.020930891798     0.812684915552    12.000000000000
         C            0.784219021208    -0.965850108202    -0.536681084448    12.000000000000
         C            1.973420021208     1.378454891798     0.369067915552    12.000000000000
         C            2.056117021208    -0.612957108202    -0.982647084448    12.000000000000
         C            2.654533021208     0.561986891798    -0.531611084448    12.000000000000
         H           -1.427349978792    -1.597262108202     0.765446915552     1.007825032230
         H           -1.478093978792    -0.214718108202     1.838717915552     1.007825032230
         H           -2.623500978792     1.137344891798     0.244797915552     1.007825032230
         H           -1.987694978792     0.237638891798    -1.112945084448     1.007825032230
         H           -4.129034978792    -0.840296108202     0.802524915552     1.007825032230
         H           -4.418018978792    -0.242821108202    -0.832033084448     1.007825032230
         H           -3.459972978792    -1.705952108202    -0.584154084448     1.007825032230
         H            0.178455021208     1.657545891798     1.515603915552     1.007825032230
         H            0.325437021208    -1.881727108202    -0.889214084448     1.007825032230
         H            2.431986021208     2.290824891798     0.726702915552     1.007825032230
         H            2.579569021208    -1.254713108202    -1.678871084448     1.007825032230
         H            3.642442021208     0.836503891798    -0.875665084448     1.007825032230

  Charge       = 0
  Multiplicity = 1
  Basis Set: 6-311+G*
    Blend: 6-311+G*
  Basis Set: (6-311+G* AUX)
    Blend: HEAVY-AUG-CC-PVTZ-JKFIT

    Orbital Energies [Eh]
    ---------------------

    Doubly Occupied:

       1A    -10.294278     2A    -10.287152     3A    -10.287029
       4A    -10.284835     5A    -10.284564     6A    -10.284312
       7A    -10.282991     8A    -10.279481     9A    -10.270037
      10A     -0.961578    11A     -0.897849    12A     -0.847257
      13A     -0.845608    14A     -0.776470    15A     -0.701850
      16A     -0.697244    17A     -0.669848    18A     -0.604891
      19A     -0.562686    20A     -0.548708    21A     -0.529821
      22A     -0.515756    23A     -0.506883    24A     -0.497304
      25A     -0.471125    26A     -0.460471    27A     -0.443775
      28A     -0.427736    29A     -0.421676    30A     -0.411636
      31A     -0.406679    32A     -0.328919    33A     -0.318246

  @DF-RKS Final Energy:  -350.14301149099026

   => Energetics <=

    Nuclear Repulsion Energy =            411.5238541397349081
    One-Electron Energy =               -1285.8647644105419658
    Two-Electron Energy =                 560.6123733043206130
    DFT Exchange-Correlation Energy =     -36.4029108678520572
    Empirical Dispersion Energy =          -0.0115636566518204
    VV10 Nonlocal Energy =                  0.0000000000000000
    Total Energy =                       -350.1430114909903182

  Dipole Moment: [D]
     X:    -0.4015      Y:     0.0249      Z:    -0.0061     Total:     0.4023

*** Psi4 exiting successfully. Buy a developer a beer!
