                               Psi4 1.3.2 release

  ==> Input File <==

--------------------------------------------------------------------------
molecule {
0 1
 C   -1.219881   -1.234786    0.381137
 C   -2.362584   -0.703791   -0.516596
 C    0.071836   -0.468603    0.201613
 C   -3.189453    0.400706    0.146666
 C    0.331468    0.692458    0.938388
 C    1.022071   -0.886253   -0.736467
 C    1.501394    1.422106    0.736461
 C    2.193718   -0.160805   -0.940931
 C    2.435923    0.998410   -0.206287
 H   -1.036589   -2.286620    0.146227
 H   -1.535412   -1.199532    1.427785
 H   -1.941003   -0.345587   -1.459364
 H   -3.028734   -1.534660   -0.768769
 H   -2.567298    1.263431    0.396464
 H   -3.985959    0.747417   -0.514291
 H   -3.649644    0.037735    1.068648
 H   -0.384756    1.020150    1.681646
 H    0.841555   -1.787783   -1.309348
 H    1.684371    2.316842    1.316559
 H    2.916994   -0.501081   -1.670139
 H    3.345667    1.561910   -0.362848
}
memory 700MB
set_num_threads(8)
psi4_io.set_default_path("/home/daniele/PSI4_sctatch/Psi4-propbenzene")
set freeze_core True
E, wfn = energy('wb97x-d/6-311+G*',return_wfn=True)
oeprop(wfn,"WIBERG_LOWDIN_INDICES")
clean()
--------------------------------------------------------------------------

    Molecular point group: c1

    Geometry (in Angstrom), charge = 0, multiplicity = 1:

       Center              X                  Y                   Z               Mass
    ------------   -----------------  -----------------  -----------------  -----------------
         C           -1.219881032278    -1.234785896867     0.381136942889    12.000000000000
         C           -2.362584032278    -0.703790896867    -0.516596057111    12.000000000000
         C            0.071835967722    -0.468602896867     0.201612942889    12.000000000000
         C           -3.189453032278     0.400706103133     0.146665942889    12.000000000000
         C            0.331467967722     0.692458103133     0.938387942889    12.000000000000
         C            1.022070967722    -0.886252896867    -0.736467057111    12.000000000000
         C            1.501393967722     1.422106103133     0.736460942889    12.000000000000
         C            2.193717967722    -0.160804896867    -0.940931057111    12.000000000000
         C            2.435922967722     0.998410103133    -0.206287057111    12.000000000000
         H           -1.036589032278    -2.286619896867     0.146226942889     1.007825032230
         H           -1.535412032278    -1.199531896867     1.427784942889     1.007825032230
         H           -1.941003032278    -0.345586896867    -1.459364057111     1.007825032230
         H           -3.028734032278    -1.534659896867    -0.768769057111     1.007825032230
         H           -2.567298032278     1.263431103133     0.396463942889     1.007825032230
         H           -3.985959032278     0.747417103133    -0.514291057111     1.007825032230
         H           -3.649644032278     0.037735103133     1.068647942889     1.007825032230
         H           -0.384756032278     1.020150103133     1.681645942889     1.007825032230
         H            0.841554967722    -1.787782896867    -1.309348057111     1.007825032230
         H            1.684370967722     2.316842103133     1.316558942889     1.007825032230
         H            2.916993967722    -0.501080896867    -1.670139057111     1.007825032230
         H            3.345666967722     1.561910103133    -0.362848057111     1.007825032230

  Charge       = 0
  Multiplicity = 1
  Basis Set: 6-311+G*
    Blend: 6-311+G*
  Basis Set: (6-311+G* AUX)
    Blend: HEAVY-AUG-CC-PVTZ-JKFIT

    Orbital Energies [Eh]
    ---------------------

    Doubly Occupied:

       1A    -10.294404     2A    -10.287238     3A    -10.287155
       4A    -10.284982     5A    -10.284599     6A    -10.284472
       7A    -10.282997     8A    -10.279555     9A    -10.268511
      10A     -0.961642    11A     -0.897940    12A     -0.846373
      13A     -0.844794    14A     -0.777847    15A     -0.703329
      16A     -0.697535    17A     -0.667038    18A     -0.604573
      19A     -0.555305    20A     -0.554017    21A     -0.534153
      22A     -0.517188    23A     -0.506497    24A     -0.486799
      25A     -0.483264    26A     -0.457915    27A     -0.439814
      28A     -0.429319    29A     -0.421676    30A     -0.413814
      31A     -0.402927    32A     -0.328982    33A     -0.318550

  @DF-RKS Final Energy:  -350.14335437531884

   => Energetics <=

    Nuclear Repulsion Energy =            416.4057982077012525
    One-Electron Energy =               -1295.6345661271877816
    Two-Electron Energy =                 565.5013716602940121
    DFT Exchange-Correlation Energy =     -36.4037617168850858
    Empirical Dispersion Energy =          -0.0121963992411914
    VV10 Nonlocal Energy =                  0.0000000000000000
    Total Energy =                       -350.1433543753187223

  Dipole Moment: [D]
     X:    -0.3696      Y:    -0.1571      Z:    -0.0837     Total:     0.4102

*** Psi4 exiting successfully. Buy a developer a beer!
