                               Psi4 1.3.2 release

  ==> Input File <==

--------------------------------------------------------------------------
molecule {
0 1
 C   -1.244841   -1.523239    0.408250
 C   -2.632024   -0.949358   -0.038671
 C   -0.043903   -0.574475    0.263493
 C   -2.641207    0.500560   -0.574033
 C    0.294872    0.323364    1.304031
 C    0.732558   -0.566079   -0.920020
 C    1.388632    1.200015    1.168146
 C    1.827672    0.309507   -1.053804
 C    2.156949    1.192490   -0.009793
 H   -1.040956   -2.446199   -0.151009
 H   -1.311854   -1.858838    1.451936
 H   -3.057792   -1.617819   -0.799347
 H   -3.328302   -1.024836    0.807632
 H   -2.006200    0.602963   -1.460269
 H   -3.655425    0.800943   -0.858048
 H   -2.287552    1.208013    0.183355
 H   -0.291355    0.345539    2.221712
 H    0.489426   -1.239275   -1.740974
 H    1.639874    1.884845    1.975959
 H    2.420544    0.303138   -1.966636
 H    3.003113    1.869221   -0.113626
}
set optking {
  frozen_dihedral = ("
    4 2 1 3
    2 1 3 5
    2 1 3 6
    1 2 4 14
  ")
}
set {
  geom_maxiter 400
  g_convergence GAU_LOOSE
  dynamic_level 1
}
memory 700MB
set_num_threads(8)
psi4_io.set_default_path("/home/daniele/PSI4_sctatch/Psi4-propbenzene")
for _ in range(1):
  try:
    set opt_coordinates both
    optimize('wb97x-d/6-311G')
    break
  except OptimizationConvergenceError:
    break
  else:
    try:
      set opt_coordinates cartesian
      optimize('wb97x-d/6-311G')
      break
    except OptimizationConvergenceError:
      pass
clean()
--------------------------------------------------------------------------

    Molecular point group: c1
  Charge       = 0
  Multiplicity = 1
  Basis Set: 6-311G
    Blend: 6-311G
  Basis Set: (6-311G AUX)
    Blend: CC-PVTZ-JKFIT
  @DF-RKS Final Energy:  -350.05627095410625
    Total Energy =                       -350.0562709541063100
    Molecular point group: c1
  Basis Set: 6-311G
    Blend: 6-311G
  Basis Set: (6-311G AUX)
    Blend: CC-PVTZ-JKFIT
  Basis Set: 6-311G
    Blend: 6-311G
  Basis Set: (6-311G AUX)
    Blend: CC-PVTZ-JKFIT
  @DF-RKS Final Energy:  -350.05857316917661
    Total Energy =                       -350.0585731691767251
  Basis Set: 6-311G
    Blend: 6-311G
  Basis Set: (6-311G AUX)
    Blend: CC-PVTZ-JKFIT
  Basis Set: 6-311G
    Blend: 6-311G
  Basis Set: (6-311G AUX)
    Blend: CC-PVTZ-JKFIT
  @DF-RKS Final Energy:  -350.05867037683379
    Total Energy =                       -350.0586703768337884
  Basis Set: 6-311G
    Blend: 6-311G
  Basis Set: (6-311G AUX)
    Blend: CC-PVTZ-JKFIT
  Charge       = 0
  Multiplicity = 1
  Basis Set: 6-311G
    Blend: 6-311G
  Basis Set: (6-311G AUX)
    Blend: CC-PVTZ-JKFIT

    Orbital Energies [Eh]
    ---------------------

    Doubly Occupied:

       1A    -10.297150     2A    -10.289026     3A    -10.288949
       4A    -10.286887     5A    -10.285976     6A    -10.285931
       7A    -10.283929     8A    -10.280928     9A    -10.263564
      10A     -0.965967    11A     -0.897113    12A     -0.848739
      13A     -0.844982    14A     -0.781537    15A     -0.704694
      16A     -0.703503    17A     -0.663392    18A     -0.603159
      19A     -0.563481    20A     -0.545702    21A     -0.529454
      22A     -0.527761    23A     -0.509490    24A     -0.497934
      25A     -0.468476    26A     -0.454023    27A     -0.446621
      28A     -0.424678    29A     -0.422467    30A     -0.406394
      31A     -0.399869    32A     -0.329033    33A     -0.318390

  @DF-RKS Final Energy:  -350.05867960176715

   => Energetics <=

    Nuclear Repulsion Energy =            421.7755293987977439
    One-Electron Energy =               -1306.1855229026930374
    Two-Electron Energy =                 570.7539679604972207
    DFT Exchange-Correlation Energy =     -36.3900237994212148
    Empirical Dispersion Energy =          -0.0126302589478327
    VV10 Nonlocal Energy =                  0.0000000000000000
    Total Energy =                       -350.0586796017670963

  Dipole Moment: [D]
     X:    -0.3161      Y:    -0.0951      Z:    -0.0188     Total:     0.3306

    Molecular point group: c1
  Basis Set: 6-311G
    Blend: 6-311G
  Basis Set: (6-311G AUX)
    Blend: CC-PVTZ-JKFIT

  -Total Gradient:
     Atom            X                  Y                   Z
    ------   -----------------  -----------------  -----------------
       1       -0.000022730683    -0.000029403852     0.000298561980
       2       -0.000005945308    -0.000325561526    -0.000263963783
       3       -0.000643223512     0.000330914092    -0.000310914041
       4        0.000002632192     0.000137159964     0.000292248733
       5        0.000301337382    -0.000119253034     0.000174658909
       6        0.000385347498    -0.000223922461     0.000066140544
       7       -0.000059567064     0.000082579156     0.000027328268
       8       -0.000083347541     0.000009257857    -0.000136214399
       9        0.000102722140     0.000012536200     0.000013580399
      10        0.000056890377     0.000058108188     0.000033645090
      11        0.000073999386     0.000045525033    -0.000015759718
      12       -0.000025756062     0.000103746882     0.000031677901
      13        0.000000318893     0.000078111101    -0.000058952706
      14       -0.000138645441    -0.000022424244    -0.000088653574
      15        0.000042059024     0.000007185007     0.000019449864
      16        0.000047364864     0.000013220825    -0.000021906029
      17       -0.000014591342     0.000001170960    -0.000012958605
      18       -0.000045472669    -0.000008694822     0.000008984082
      19       -0.000011905019    -0.000010030566    -0.000027003263
      20       -0.000035797658    -0.000020444134    -0.000004068351
      21       -0.000008774451    -0.000040150907    -0.000016913956

  **** Optimization is complete! (in 4 steps) ****
    Final optimized geometry and variables:
    Molecular point group: c1

    Geometry (in Angstrom), charge = 0, multiplicity = 1:

    C           -1.118450500971    -1.507089895035     0.368611485032
    C           -2.502767925676    -0.930006966688    -0.079113675609
    C            0.054639542912    -0.565147222329     0.217723905294
    C           -2.489022259858     0.507524078311    -0.610054671697
    C            0.389597454905     0.330257621501     1.239244764334
    C            0.820128109198    -0.551360813282    -0.952866116889
    C            1.448350845278     1.223229539787     1.091982136751
    C            1.881099683976     0.338855497396    -1.105566559970
    C            2.197732221522     1.231087493134    -0.083158141468
    H           -0.909380454823    -2.414956017824    -0.201676176868
    H           -1.182334689434    -1.816369327641     1.414370118481
    H           -2.922304002411    -1.581024144885    -0.850113283836
    H           -3.194327974598    -0.982130465577     0.765625626699
    H           -1.851780256437     0.602862552429    -1.490734802595
    H           -3.499391616388     0.813754315826    -0.888814974251
    H           -2.116354463116     1.209281966857     0.137562561843
    H           -0.188637239203     0.326922657647     2.155463309139
    H            0.579492662206    -1.243744373182    -1.750614842517
    H            1.689927648718     1.908831085099     1.893339412926
    H            2.461151236728     0.333603793018    -2.018896822165
    H            3.021731380566     1.921982703989    -0.199060074555

*** Psi4 exiting successfully. Buy a developer a beer!
