                               Psi4 1.3.2 release

  ==> Input File <==

--------------------------------------------------------------------------
molecule {
0 1
 C   -1.267040   -1.281233    0.395258
 C   -2.439586   -0.745779   -0.474304
 C    0.035391   -0.494605    0.189041
 C   -3.274085    0.357564    0.208038
 C    0.298726    0.673045    0.944499
 C    0.979600   -0.898919   -0.785351
 C    1.482252    1.409089    0.741078
 C    2.163708   -0.163233   -0.987080
 C    2.416313    0.990375   -0.223340
 H   -1.083818   -2.332943    0.136751
 H   -1.543883   -1.302915    1.457384
 H   -2.059401   -0.402801   -1.445834
 H   -3.104007   -1.587459   -0.714062
 H   -2.656367    1.228622    0.450487
 H   -4.082209    0.694934   -0.449327
 H   -3.728570   -0.005670    1.135949
 H   -0.413986    1.013373    1.694406
 H    0.798647   -1.785616   -1.391435
 H    1.674664    2.303386    1.331158
 H    2.884358   -0.487162   -1.735853
 H    3.331523    1.558428   -0.379180
}
set optking {
  frozen_dihedral = ("
    4 2 1 3
    2 1 3 5
    2 1 3 6
    1 2 4 14
  ")
}
set {
  geom_maxiter 400
  g_convergence GAU_LOOSE
  dynamic_level 1
}
memory 700MB
set_num_threads(8)
psi4_io.set_default_path("/home/daniele/PSI4_sctatch/Psi4-propbenzene")
for _ in range(1):
  try:
    set opt_coordinates both
    optimize('wb97x-d/6-311G')
    break
  except OptimizationConvergenceError:
    break
  else:
    try:
      set opt_coordinates cartesian
      optimize('wb97x-d/6-311G')
      break
    except OptimizationConvergenceError:
      pass
clean()
--------------------------------------------------------------------------

    Molecular point group: c1
  Charge       = 0
  Multiplicity = 1
  Basis Set: 6-311G
    Blend: 6-311G
  Basis Set: (6-311G AUX)
    Blend: CC-PVTZ-JKFIT
  @DF-RKS Final Energy:  -350.06100924419223
    Total Energy =                       -350.0610092441921211
    Molecular point group: c1
  Basis Set: 6-311G
    Blend: 6-311G
  Basis Set: (6-311G AUX)
    Blend: CC-PVTZ-JKFIT
  Basis Set: 6-311G
    Blend: 6-311G
  Basis Set: (6-311G AUX)
    Blend: CC-PVTZ-JKFIT
  @DF-RKS Final Energy:  -350.06329389614598
    Total Energy =                       -350.0632938961459786
  Basis Set: 6-311G
    Blend: 6-311G
  Basis Set: (6-311G AUX)
    Blend: CC-PVTZ-JKFIT
  Charge       = 0
  Multiplicity = 1
  Basis Set: 6-311G
    Blend: 6-311G
  Basis Set: (6-311G AUX)
    Blend: CC-PVTZ-JKFIT

    Orbital Energies [Eh]
    ---------------------

    Doubly Occupied:

       1A    -10.297760     2A    -10.289006     3A    -10.288903
       4A    -10.286741     5A    -10.286256     6A    -10.286181
       7A    -10.284170     8A    -10.280883     9A    -10.269025
      10A     -0.966137    11A     -0.900549    12A     -0.849366
      13A     -0.847777    14A     -0.780591    15A     -0.705581
      16A     -0.699872    17A     -0.669722    18A     -0.607201
      19A     -0.558430    20A     -0.553739    21A     -0.535073
      22A     -0.519283    23A     -0.509333    24A     -0.488826
      25A     -0.484802    26A     -0.458631    27A     -0.439816
      28A     -0.429421    29A     -0.421295    30A     -0.413477
      31A     -0.402379    32A     -0.329143    33A     -0.318328

  @DF-RKS Final Energy:  -350.06335316444910

   => Energetics <=

    Nuclear Repulsion Energy =            416.4057870142347042
    One-Electron Energy =               -1295.3795603905568896
    Two-Electron Energy =                 565.3124303535786339
    DFT Exchange-Correlation Energy =     -36.3898137417184273
    Empirical Dispersion Energy =          -0.0121963999870781
    VV10 Nonlocal Energy =                  0.0000000000000000
    Total Energy =                       -350.0633531644490972

  Dipole Moment: [D]
     X:    -0.3435      Y:    -0.1315      Z:    -0.0828     Total:     0.3770

    Molecular point group: c1
  Basis Set: 6-311G
    Blend: 6-311G
  Basis Set: (6-311G AUX)
    Blend: CC-PVTZ-JKFIT

  -Total Gradient:
     Atom            X                  Y                   Z
    ------   -----------------  -----------------  -----------------
       1       -0.002453725534     0.001188422315     0.002277616084
       2        0.003289850221     0.002587110393    -0.001189715076
       3        0.001033319641    -0.001106372180    -0.002367076825
       4       -0.002069426711    -0.002032579042     0.001317849807
       5       -0.000253189643     0.000074819485    -0.000228086095
       6       -0.000169264038    -0.000455970053     0.000450161854
       7        0.000043983659     0.000014449569     0.000167415340
       8        0.000296198615     0.000028582948     0.000087115963
       9       -0.000016738443    -0.000042770552    -0.000185835862
      10        0.000037410471    -0.000117550841    -0.000013353841
      11        0.000052471969     0.000037245477     0.000035482386
      12        0.000029043475    -0.000016827280    -0.000008208924
      13       -0.000123639565    -0.000128296075    -0.000074066534
      14       -0.000065829731     0.000032139539    -0.000056977652
      15        0.000041792800    -0.000043825188    -0.000025864679
      16        0.000068887692    -0.000006363234    -0.000087332243
      17        0.000074098323     0.000026398670    -0.000016298614
      18        0.000106815437     0.000065891458     0.000015706539
      19       -0.000011811239    -0.000034775630    -0.000026999499
      20       -0.000028476977     0.000010990524    -0.000004758043
      21       -0.000045457251    -0.000027207654    -0.000030184410

  **** Optimization is complete! (in 3 steps) ****
    Final optimized geometry and variables:
    Molecular point group: c1

    Geometry (in Angstrom), charge = 0, multiplicity = 1:

    C           -1.219881197691    -1.234785754823     0.381136926916
    C           -2.362583792206    -0.703791234998    -0.516595653142
    C            0.071836303808    -0.468602821662     0.201612822431
    C           -3.189453144741     0.400706477852     0.146666494816
    C            0.331467666330     0.692458281556     0.938388110495
    C            1.022070657219    -0.886253404666    -0.736467234849
    C            1.501394098658     1.422106457382     0.736460601644
    C            2.193717902123    -0.160804865407    -0.940931464448
    C            2.435923187440     0.998409915683    -0.206287040059
    H           -1.036589113191    -2.286619627669     0.146226883644
    H           -1.535411655477    -1.199531864731     1.427784541881
    H           -1.941003311982    -0.345586817280    -1.459364261319
    H           -3.028733905754    -1.534660341210    -0.768768828956
    H           -2.567297797793     1.263430566900     0.396463828331
    H           -3.985959356001     0.747416688666    -0.514290921032
    H           -3.649643839704     0.037735384358     1.068647845422
    H           -0.384755996573     1.020149692453     1.681645574363
    H            0.841554775000    -1.787783051148    -1.309348265114
    H            1.684371313169     2.316841514694     1.316558855620
    H            2.916993750223    -0.501080665786    -1.670139137327
    H            3.345667090833     1.561910297151    -0.362847727258

*** Psi4 exiting successfully. Buy a developer a beer!
