                               Psi4 1.3.2 release

  ==> Input File <==

--------------------------------------------------------------------------
molecule {
0 1
 C   -1.427454   -0.069979    0.655325
 C   -2.370966   -0.640005   -0.444220
 C    0.062286    0.114441    0.280708
 C   -3.835249   -0.784986    0.017489
 C    0.940506    0.704889    1.223845
 C    0.585140   -0.235300   -0.990870
 C    2.297960    0.917624    0.917827
 C    1.944308   -0.022304   -1.295576
 C    2.801670    0.552361   -0.341957
 H   -1.477069   -0.723656    1.536651
 H   -1.819554    0.900793    0.988091
 H   -2.329964    0.011648   -1.327291
 H   -1.994676   -1.618978   -0.769409
 H   -4.255389    0.182688    0.311650
 H   -4.457690   -1.188411   -0.788279
 H   -3.914748   -1.463717    0.873391
 H    0.569033    1.000019    2.204418
 H   -0.046535   -0.676693   -1.758377
 H    2.958097    1.366229    1.657813
 H    2.331752   -0.302892   -2.273506
 H    3.850770    0.716709   -0.579439
}
set optking {
  frozen_dihedral = ("
    2 1 3 5
    2 1 3 6
    4 2 1 3
    1 2 4 14
  ")
}
set {
  geom_maxiter 400
  g_convergence GAU_LOOSE
  dynamic_level 1
}
memory 700MB
set_num_threads(8)
psi4_io.set_default_path("/home/daniele/PSI4_sctatch/Psi4-propbenzene")
for _ in range(1):
  try:
    set opt_coordinates both
    optimize('wb97x-d/6-311G')
    break
  except OptimizationConvergenceError:
    break
  else:
    try:
      set opt_coordinates cartesian
      optimize('wb97x-d/6-311G')
      break
    except OptimizationConvergenceError:
      pass
clean()
--------------------------------------------------------------------------

    Molecular point group: c1
  Charge       = 0
  Multiplicity = 1
  Basis Set: 6-311G
    Blend: 6-311G
  Basis Set: (6-311G AUX)
    Blend: CC-PVTZ-JKFIT
  @DF-RKS Final Energy:  -350.06062637688899
    Total Energy =                       -350.0606263768889335
    Molecular point group: c1
  Basis Set: 6-311G
    Blend: 6-311G
  Basis Set: (6-311G AUX)
    Blend: CC-PVTZ-JKFIT
  Basis Set: 6-311G
    Blend: 6-311G
  Basis Set: (6-311G AUX)
    Blend: CC-PVTZ-JKFIT
  @DF-RKS Final Energy:  -350.06319611136286
    Total Energy =                       -350.0631961113627995
  Basis Set: 6-311G
    Blend: 6-311G
  Basis Set: (6-311G AUX)
    Blend: CC-PVTZ-JKFIT
  Charge       = 0
  Multiplicity = 1
  Basis Set: 6-311G
    Blend: 6-311G
  Basis Set: (6-311G AUX)
    Blend: CC-PVTZ-JKFIT

    Orbital Energies [Eh]
    ---------------------

    Doubly Occupied:

       1A    -10.298957     2A    -10.287864     3A    -10.287467
       4A    -10.286112     5A    -10.285237     6A    -10.284871
       7A    -10.284803     8A    -10.282539     9A    -10.272313
      10A     -0.965453    11A     -0.902706    12A     -0.852256
      13A     -0.847085    14A     -0.779894    15A     -0.714633
      16A     -0.692654    17A     -0.667916    18A     -0.609402
      19A     -0.561101    20A     -0.547329    21A     -0.543039
      22A     -0.521332    23A     -0.508562    24A     -0.488728
      25A     -0.485548    26A     -0.451573    27A     -0.446010
      28A     -0.435312    29A     -0.416571    30A     -0.413695
      31A     -0.407389    32A     -0.328194    33A     -0.317401

  @DF-RKS Final Energy:  -350.06335141551841

   => Energetics <=

    Nuclear Repulsion Energy =            410.3697399659099574
    One-Electron Energy =               -1283.2742280796037448
    Two-Electron Energy =                 559.2457759395863377
    DFT Exchange-Correlation Energy =     -36.3929938012587826
    Empirical Dispersion Energy =          -0.0116454401522758
    VV10 Nonlocal Energy =                  0.0000000000000000
    Total Energy =                       -350.0633514155185253

  Dipole Moment: [D]
     X:    -0.4746      Y:    -0.0486      Z:     0.0647     Total:     0.4815

    Molecular point group: c1
  Basis Set: 6-311G
    Blend: 6-311G
  Basis Set: (6-311G AUX)
    Blend: CC-PVTZ-JKFIT

  -Total Gradient:
     Atom            X                  Y                   Z
    ------   -----------------  -----------------  -----------------
       1       -0.000864802374     0.001225232907    -0.000303526410
       2       -0.000874458565     0.000148520094     0.000196080951
       3        0.002350492748    -0.003506287979     0.001924114926
       4        0.000026100967    -0.000167788540     0.000064949336
       5       -0.000909152766     0.000879385072    -0.001259245609
       6        0.000180217645     0.001417811332    -0.000571933963
       7        0.000307349055    -0.000192311387    -0.000711480500
       8       -0.000362875341    -0.000011638267     0.000212029280
       9       -0.000351273158     0.000113109217     0.000520668225
      10       -0.000045114327     0.000091768241    -0.000261017748
      11        0.000064601889    -0.000267443708    -0.000149616020
      12       -0.000078616476     0.000033957280     0.000284586040
      13       -0.000127295773     0.000115155616     0.000279893993
      14        0.000131935510    -0.000146079370    -0.000098614119
      15       -0.000053459936    -0.000025736848    -0.000000626535
      16        0.000092062749     0.000129953792    -0.000161262616
      17        0.000165492945    -0.000053385144    -0.000216931701
      18        0.000591942924     0.000255314039     0.000321365976
      19       -0.000078858784    -0.000049546323    -0.000122890635
      20        0.000020444531     0.000101137981     0.000195567408
      21       -0.000138819331    -0.000032603766     0.000007373529

  **** Optimization is complete! (in 3 steps) ****
    Final optimized geometry and variables:
    Molecular point group: c1

    Geometry (in Angstrom), charge = 0, multiplicity = 1:

    C           -1.427483079750    -0.117077564010     0.617296940347
    C           -2.330644655623    -0.677241910173    -0.485058582730
    C            0.040069077315     0.069508342958     0.268874216479
    C           -3.783277567547    -0.817849295573    -0.023435553628
    C            0.890174794931     0.652729017999     1.217097813126
    C            0.577976407444    -0.267359752866    -0.976046777434
    C            2.235318364995     0.873119416186     0.941902837778
    C            1.926945108712    -0.048282818374    -1.256314466399
    C            2.761081689056     0.520701611993    -0.300029060028
    H           -1.498076043934    -0.774773725333     1.491181390285
    H           -1.830310873595     0.849387395862     0.939430733677
    H           -2.288108731671    -0.022487315463    -1.360392240668
    H           -1.957019955167    -1.654838904342    -0.803548810637
    H           -4.195789222280     0.150196756761     0.270272743170
    H           -4.412635363699    -1.222964053360    -0.817569850766
    H           -3.856925999725    -1.486777576522     0.837118046033
    H            0.488599641393     0.934193390329     2.183193963408
    H           -0.048671721004    -0.706787175543    -1.738468469163
    H            2.871451367723     1.322719134528     1.692583445337
    H            2.322307436759    -0.320532386265    -2.225746488321
    H            3.806195184406     0.691239107286    -0.519103412820

*** Psi4 exiting successfully. Buy a developer a beer!
