                               Psi4 1.3.2 release

  ==> Input File <==

--------------------------------------------------------------------------
molecule {
0 1
 C   -1.298222   -0.677212    0.639227
 C   -2.359207   -0.060075   -0.289304
 C    0.102723   -0.225065    0.294927
 C   -3.779648   -0.514420    0.054178
 C    0.620184    0.961068    0.825666
 C    0.888744   -0.950115   -0.606259
 C    1.889088    1.410978    0.467953
 C    2.158296   -0.504022   -0.967670
 C    2.662339    0.679273   -0.431519
 H   -1.360755   -1.767964    0.578361
 H   -1.530163   -0.408096    1.674412
 H   -2.291141    1.030387   -0.230319
 H   -2.121469   -0.326811   -1.323522
 H   -4.045470   -0.227954    1.074615
 H   -4.512339   -0.068552   -0.620885
 H   -3.871304   -1.600644   -0.021152
 H    0.024896    1.532525    1.527692
 H    0.503221   -1.871972   -1.024770
 H    2.274092    2.328862    0.892021
 H    2.752891   -1.079554   -1.664662
 H    3.648350    1.026068   -0.709354
}
memory 700MB
set_num_threads(8)
psi4_io.set_default_path("/home/daniele/PSI4_sctatch/Psi4-propbenzene")
set freeze_core True
E, wfn = energy('wb97x-d/6-311+G*',return_wfn=True)
oeprop(wfn,"WIBERG_LOWDIN_INDICES")
clean()
--------------------------------------------------------------------------

    Molecular point group: c1

    Geometry (in Angstrom), charge = 0, multiplicity = 1:

       Center              X                  Y                   Z               Mass
    ------------   -----------------  -----------------  -----------------  -----------------
         C           -1.298221847961    -0.677211968459     0.639226851579    12.000000000000
         C           -2.359206847961    -0.060074968459    -0.289304148421    12.000000000000
         C            0.102723152039    -0.225064968459     0.294926851579    12.000000000000
         C           -3.779647847961    -0.514419968459     0.054177851579    12.000000000000
         C            0.620184152039     0.961068031541     0.825665851579    12.000000000000
         C            0.888744152039    -0.950114968459    -0.606259148421    12.000000000000
         C            1.889088152039     1.410978031541     0.467952851579    12.000000000000
         C            2.158296152039    -0.504021968459    -0.967670148421    12.000000000000
         C            2.662339152039     0.679273031541    -0.431519148421    12.000000000000
         H           -1.360754847961    -1.767963968459     0.578360851579     1.007825032230
         H           -1.530162847961    -0.408095968459     1.674411851579     1.007825032230
         H           -2.291140847961     1.030387031541    -0.230319148421     1.007825032230
         H           -2.121468847961    -0.326810968459    -1.323522148421     1.007825032230
         H           -4.045469847961    -0.227953968459     1.074614851579     1.007825032230
         H           -4.512338847961    -0.068551968459    -0.620885148421     1.007825032230
         H           -3.871303847961    -1.600643968459    -0.021152148421     1.007825032230
         H            0.024896152039     1.532525031541     1.527691851579     1.007825032230
         H            0.503221152039    -1.871971968459    -1.024770148421     1.007825032230
         H            2.274092152039     2.328862031541     0.892020851579     1.007825032230
         H            2.752891152039    -1.079553968459    -1.664662148421     1.007825032230
         H            3.648350152039     1.026068031541    -0.709354148421     1.007825032230

  Charge       = 0
  Multiplicity = 1
  Basis Set: 6-311+G*
    Blend: 6-311+G*
  Basis Set: (6-311+G* AUX)
    Blend: HEAVY-AUG-CC-PVTZ-JKFIT

    Orbital Energies [Eh]
    ---------------------

    Doubly Occupied:

       1A    -10.294395     2A    -10.287139     3A    -10.287068
       4A    -10.284947     5A    -10.284690     6A    -10.284658
       7A    -10.283240     8A    -10.279717     9A    -10.269926
      10A     -0.961771    11A     -0.898930    12A     -0.847476
      13A     -0.845747    14A     -0.776618    15A     -0.701520
      16A     -0.697394    17A     -0.669996    18A     -0.605139
      19A     -0.564460    20A     -0.548352    21A     -0.528684
      22A     -0.515721    23A     -0.506930    24A     -0.500197
      25A     -0.464553    26A     -0.463690    27A     -0.446330
      28A     -0.425819    29A     -0.423629    30A     -0.410798
      31A     -0.409427    32A     -0.328871    33A     -0.318509

  @DF-RKS Final Energy:  -350.14572066364434

   => Energetics <=

    Nuclear Repulsion Energy =            411.2465408657300259
    One-Electron Energy =               -1285.2997316355028943
    Two-Electron Energy =                 560.3227013624502888
    DFT Exchange-Correlation Energy =     -36.4036168230028778
    Empirical Dispersion Energy =          -0.0116144333189567
    VV10 Nonlocal Energy =                  0.0000000000000000
    Total Energy =                       -350.1457206636444539

  Dipole Moment: [D]
     X:    -0.3860      Y:    -0.0159      Z:    -0.0383     Total:     0.3882

*** Psi4 exiting successfully. Buy a developer a beer!
