                               Psi4 1.3.2 release

  ==> Input File <==

--------------------------------------------------------------------------
molecule {
0 1
 C   -1.330504   -0.377976    0.965586
 C   -2.446016    0.259221    0.089511
 C    0.061527   -0.108006    0.440096
 C   -3.419020   -0.776182   -0.482538
 C    0.746634    1.058786    0.795172
 C    0.673931   -0.993804   -0.452679
 C    2.007435    1.335533    0.271100
 C    1.934624   -0.720889   -0.979969
 C    2.605209    0.446332   -0.620284
 H   -1.488862   -1.458867    1.017236
 H   -1.404922   -0.010265    1.991915
 H   -3.003603    0.994239    0.676201
 H   -1.984005    0.812237   -0.731794
 H   -3.921752   -1.324800    0.317461
 H   -4.185660   -0.303635   -1.099591
 H   -2.888777   -1.502391   -1.103645
 H    0.288795    1.752504    1.489778
 H    0.159946   -1.905357   -0.732247
 H    2.522883    2.241995    0.559676
 H    2.393160   -1.419073   -1.667656
 H    3.584654    0.658688   -1.026848
}
memory 700MB
set_num_threads(8)
psi4_io.set_default_path("/home/daniele/PSI4_sctatch/Psi4-propbenzene")
set freeze_core True
E, wfn = energy('wb97x-d/6-311+G*',return_wfn=True)
oeprop(wfn,"WIBERG_LOWDIN_INDICES")
clean()
--------------------------------------------------------------------------

    Molecular point group: c1

    Geometry (in Angstrom), charge = 0, multiplicity = 1:

       Center              X                  Y                   Z               Mass
    ------------   -----------------  -----------------  -----------------  -----------------
         C           -1.330504074617    -0.377975945706     0.965585966335    12.000000000000
         C           -2.446016074617     0.259221054294     0.089510966335    12.000000000000
         C            0.061526925383    -0.108005945706     0.440095966335    12.000000000000
         C           -3.419020074617    -0.776181945706    -0.482538033665    12.000000000000
         C            0.746633925383     1.058786054294     0.795171966335    12.000000000000
         C            0.673930925383    -0.993803945706    -0.452679033665    12.000000000000
         C            2.007434925383     1.335533054294     0.271099966335    12.000000000000
         C            1.934623925383    -0.720888945706    -0.979969033665    12.000000000000
         C            2.605208925383     0.446332054294    -0.620284033665    12.000000000000
         H           -1.488862074617    -1.458866945706     1.017235966335     1.007825032230
         H           -1.404922074617    -0.010264945706     1.991914966335     1.007825032230
         H           -3.003603074617     0.994239054294     0.676200966335     1.007825032230
         H           -1.984005074617     0.812237054294    -0.731794033665     1.007825032230
         H           -3.921752074617    -1.324799945706     0.317460966335     1.007825032230
         H           -4.185660074617    -0.303634945706    -1.099591033665     1.007825032230
         H           -2.888777074617    -1.502390945706    -1.103645033665     1.007825032230
         H            0.288794925383     1.752504054294     1.489777966335     1.007825032230
         H            0.159945925383    -1.905356945706    -0.732247033665     1.007825032230
         H            2.522882925383     2.241995054294     0.559675966335     1.007825032230
         H            2.393159925383    -1.419072945706    -1.667656033665     1.007825032230
         H            3.584653925383     0.658688054294    -1.026848033665     1.007825032230

  Charge       = 0
  Multiplicity = 1
  Basis Set: 6-311+G*
    Blend: 6-311+G*
  Basis Set: (6-311+G* AUX)
    Blend: HEAVY-AUG-CC-PVTZ-JKFIT

    Orbital Energies [Eh]
    ---------------------

    Doubly Occupied:

       1A    -10.294258     2A    -10.287154     3A    -10.287086
       4A    -10.284783     5A    -10.284321     6A    -10.284192
       7A    -10.282713     8A    -10.279190     9A    -10.269885
      10A     -0.961404    11A     -0.896792    12A     -0.846684
      13A     -0.845480    14A     -0.776469    15A     -0.702601
      16A     -0.697130    17A     -0.669115    18A     -0.604675
      19A     -0.558456    20A     -0.550706    21A     -0.531886
      22A     -0.516786    23A     -0.506738    24A     -0.490474
      25A     -0.479075    26A     -0.459449    27A     -0.440004
      28A     -0.428726    29A     -0.421581    30A     -0.412068
      31A     -0.403807    32A     -0.329017    33A     -0.317968

  @DF-RKS Final Energy:  -350.14014762528632

   => Energetics <=

    Nuclear Repulsion Energy =            413.0539518856339214
    One-Electron Energy =               -1288.9355901312151218
    Two-Electron Energy =                 562.1553423663356170
    DFT Exchange-Correlation Energy =     -36.4021733952859421
    Empirical Dispersion Energy =          -0.0116783507548670
    VV10 Nonlocal Energy =                  0.0000000000000000
    Total Energy =                       -350.1401476252863745

  Dipole Moment: [D]
     X:    -0.4152      Y:     0.0585      Z:     0.0500     Total:     0.4223

*** Psi4 exiting successfully. Buy a developer a beer!
