                               Psi4 1.3.2 release

  ==> Input File <==

--------------------------------------------------------------------------
molecule {
0 1
 C   -0.493581   -0.475502    0.418665
 C    0.451990    0.661500   -0.055729
 C   -1.910408   -0.435035   -0.163927
 C    1.940574    0.300067   -0.099466
 H   -0.543297   -0.473069    1.531978
 H   -0.048259   -1.457971    0.139202
 H    0.300501    1.559154    0.587051
 H    0.156485    0.973810   -1.083779
 H   -1.893644   -0.507764   -1.274845
 H   -2.429139    0.510581    0.111841
 H   -2.521303   -1.281911    0.222087
 H    2.130349   -0.551466   -0.791254
 H    2.312105    0.013397    0.910066
 H    2.547505    1.164482   -0.451281
}
set optking {
  frozen_dihedral = ("
    3 1 2 4
    2 1 3 9
    1 2 4 12
  ")
}
set {
  geom_maxiter 5
  g_convergence GAU_LOOSE
  dynamic_level 1
}
memory 700MB
set_num_threads(8)
psi4_io.set_default_path("/home/daniele/PSI4_sctatch/Psi4-butane")
for _ in range(1):
  try:
    set opt_coordinates both
    optimize('wb97x-d/6-31G*')
    break
  except OptimizationConvergenceError:
    break
  else:
    try:
      set opt_coordinates cartesian
      optimize('wb97x-d/6-31G*')
      break
    except OptimizationConvergenceError:
      pass
clean()
--------------------------------------------------------------------------

    Molecular point group: c1
  Charge       = 0
  Multiplicity = 1
  Basis Set: 6-31G*
    Blend: 6-31G*
  Basis Set: (6-31G* AUX)
    Blend: CC-PVDZ-JKFIT
  @DF-RKS Final Energy:  -158.40292125750895
    Total Energy =                       -158.4029212575089502
    Molecular point group: c1
  Basis Set: 6-31G*
    Blend: 6-31G*
  Basis Set: (6-31G* AUX)
    Blend: CC-PVDZ-JKFIT
  Basis Set: 6-31G*
    Blend: 6-31G*
  Basis Set: (6-31G* AUX)
    Blend: CC-PVDZ-JKFIT
  @DF-RKS Final Energy:  -158.40531038965256
    Total Energy =                       -158.4053103896525556
  Basis Set: 6-31G*
    Blend: 6-31G*
  Basis Set: (6-31G* AUX)
    Blend: CC-PVDZ-JKFIT
  Charge       = 0
  Multiplicity = 1
  Basis Set: 6-31G*
    Blend: 6-31G*
  Basis Set: (6-31G* AUX)
    Blend: CC-PVDZ-JKFIT

    Orbital Energies [Eh]
    ---------------------

    Doubly Occupied:

       1A    -10.285654     2A    -10.285454     3A    -10.279327
       4A    -10.279327     5A     -0.887623     6A     -0.816861
       7A     -0.720342     8A     -0.664603     9A     -0.550063
      10A     -0.506585    11A     -0.505706    12A     -0.486748
      13A     -0.445158    14A     -0.432618    15A     -0.404779
      16A     -0.396650    17A     -0.396340

  @DF-RKS Final Energy:  -158.40535957816164

   => Energetics <=

    Nuclear Repulsion Energy =            130.4583181074146410
    One-Electron Energy =                -469.4913440725657665
    Two-Electron Energy =                 197.7787315861242519
    DFT Exchange-Correlation Energy =     -17.1448159967813254
    Empirical Dispersion Energy =          -0.0062492023534330
    VV10 Nonlocal Energy =                  0.0000000000000000
    Total Energy =                       -158.4053595781616366

  Dipole Moment: [D]
     X:    -0.0026      Y:     0.0116      Z:     0.0227     Total:     0.0257

    Molecular point group: c1
  Basis Set: 6-31G*
    Blend: 6-31G*
  Basis Set: (6-31G* AUX)
    Blend: CC-PVDZ-JKFIT

  -Total Gradient:
     Atom            X                  Y                   Z
    ------   -----------------  -----------------  -----------------
       1       -0.001854016794     0.002357578984     0.001965009547
       2        0.001245151989     0.000364262134     0.003347866949
       3        0.000969803416    -0.002262255160    -0.002169375620
       4       -0.000351416127    -0.000498726075    -0.003227602325
       5       -0.000026486436    -0.000210667762    -0.000120068156
       6       -0.000187245171     0.000067632128     0.000090523780
       7        0.000066824753     0.000029638948    -0.000232450645
       8        0.000161087398     0.000050496431     0.000139681721
       9       -0.000045046912     0.000323953879     0.000232746765
      10        0.000111928893    -0.000291927654    -0.000104788778
      11       -0.000017615678     0.000040042893    -0.000026809333
      12       -0.000027972389    -0.000001626009     0.000403366531
      13       -0.000063712612     0.000077157347    -0.000313971316
      14        0.000018346310    -0.000043376152     0.000020443724

  **** Optimization is complete! (in 3 steps) ****
    Final optimized geometry and variables:
    Molecular point group: c1

    Geometry (in Angstrom), charge = 0, multiplicity = 1:

    C           -0.470568466427    -0.488186601962     0.407149946955
    C            0.432678723410     0.657611113171    -0.076515285707
    C           -1.878332627706    -0.439295959557    -0.183714766824
    C            1.913113622127     0.283777796415    -0.119784363422
    H           -0.518637076283    -0.491903480842     1.502985662355
    H           -0.011868206223    -1.445347675100     0.123822761874
    H            0.283223945626     1.544606153766     0.551244547126
    H            0.122433604258     0.950844348775    -1.088740998961
    H           -1.840970840434    -0.503199422344    -1.276780280664
    H           -2.385602590331     0.497774714282     0.073500348100
    H           -2.497210375161    -1.264944153883     0.182848074912
    H            2.078729934996    -0.560437561229    -0.798123163370
    H            2.277549605127    -0.013852659820     0.870260377602
    H            2.529367335369     1.120879232380    -0.464115447797

*** Psi4 exiting successfully. Buy a developer a beer!
