                               Psi4 1.3.2 release

  ==> Input File <==

--------------------------------------------------------------------------
molecule {
0 1
 C   -0.583306   -0.278964    0.698471
 C    0.471478    0.778958    0.276971
 C   -1.637142   -0.609897   -0.363551
 C    1.724893    0.217332   -0.402304
 H   -1.121351    0.105688    1.595866
 H   -0.077737   -1.212963    1.035549
 H    0.801815    1.323398    1.192017
 H    0.001797    1.552582   -0.372989
 H   -1.163739   -1.011836   -1.287380
 H   -2.225912    0.292566   -0.643869
 H   -2.351239   -1.376462    0.012963
 H    1.464209   -0.332492   -1.334345
 H    2.268972   -0.484152    0.269743
 H    2.427142    1.036515   -0.676534
}
set optking {
  frozen_dihedral = ("
    3 1 2 4
    2 1 3 9
    1 2 4 12
  ")
}
set {
  geom_maxiter 5
  g_convergence GAU_LOOSE
  dynamic_level 1
}
memory 700MB
set_num_threads(8)
psi4_io.set_default_path("/home/daniele/PSI4_sctatch/Psi4-butane")
for _ in range(1):
  try:
    set opt_coordinates both
    optimize('wb97x-d/6-31G*')
    break
  except OptimizationConvergenceError:
    break
  else:
    try:
      set opt_coordinates cartesian
      optimize('wb97x-d/6-31G*')
      break
    except OptimizationConvergenceError:
      pass
clean()
--------------------------------------------------------------------------

    Molecular point group: c1
  Charge       = 0
  Multiplicity = 1
  Basis Set: 6-31G*
    Blend: 6-31G*
  Basis Set: (6-31G* AUX)
    Blend: CC-PVDZ-JKFIT
  @DF-RKS Final Energy:  -158.40283602227200
    Total Energy =                       -158.4028360222719698
    Molecular point group: c1
  Basis Set: 6-31G*
    Blend: 6-31G*
  Basis Set: (6-31G* AUX)
    Blend: CC-PVDZ-JKFIT
  Basis Set: 6-31G*
    Blend: 6-31G*
  Basis Set: (6-31G* AUX)
    Blend: CC-PVDZ-JKFIT
  @DF-RKS Final Energy:  -158.40525241519259
    Total Energy =                       -158.4052524151925638
  Basis Set: 6-31G*
    Blend: 6-31G*
  Basis Set: (6-31G* AUX)
    Blend: CC-PVDZ-JKFIT
  Charge       = 0
  Multiplicity = 1
  Basis Set: 6-31G*
    Blend: 6-31G*
  Basis Set: (6-31G* AUX)
    Blend: CC-PVDZ-JKFIT

    Orbital Energies [Eh]
    ---------------------

    Doubly Occupied:

       1A    -10.285583     2A    -10.285382     3A    -10.279139
       4A    -10.279138     5A     -0.887868     6A     -0.814364
       7A     -0.726070     8A     -0.659366     9A     -0.539969
      10A     -0.532549    11A     -0.500553    12A     -0.467042
      13A     -0.452347    14A     -0.439234    15A     -0.405164
      16A     -0.395894    17A     -0.392647

  @DF-RKS Final Energy:  -158.40531287912970

   => Energetics <=

    Nuclear Repulsion Energy =            131.6246803556922771
    One-Electron Energy =                -471.8258725081412308
    Two-Electron Energy =                 198.9477959488541217
    DFT Exchange-Correlation Energy =     -17.1453991572155573
    Empirical Dispersion Energy =          -0.0065175183193331
    VV10 Nonlocal Energy =                  0.0000000000000000
    Total Energy =                       -158.4053128791296956

  Dipole Moment: [D]
     X:    -0.0078      Y:     0.0347      Z:     0.0678     Total:     0.0765

    Molecular point group: c1
  Basis Set: 6-31G*
    Blend: 6-31G*
  Basis Set: (6-31G* AUX)
    Blend: CC-PVDZ-JKFIT

  -Total Gradient:
     Atom            X                  Y                   Z
    ------   -----------------  -----------------  -----------------
       1        0.002883160245    -0.003286212904    -0.000598131137
       2       -0.002413007052     0.001186279095    -0.003493084407
       3       -0.001682174093     0.002556228209     0.001200671668
       4        0.001195814708    -0.000379255456     0.003034555215
       5       -0.000053259554    -0.000147561851    -0.000071860910
       6       -0.000133151286     0.000105034935     0.000003486720
       7        0.000078802396     0.000034095315    -0.000150158498
       8        0.000119727215    -0.000046248725     0.000110082449
       9       -0.000208033292    -0.000330473722     0.000313573116
      10        0.000150781817    -0.000157640344     0.000008829793
      11        0.000035287814     0.000111642079    -0.000086882601
      12        0.000177444854     0.000462266565    -0.000048352936
      13       -0.000134643343     0.000086184065    -0.000148996622
      14       -0.000029039760    -0.000138597827     0.000034349281

  **** Optimization is complete! (in 3 steps) ****
    Final optimized geometry and variables:
    Molecular point group: c1

    Geometry (in Angstrom), charge = 0, multiplicity = 1:

    C           -0.569822495604    -0.294505310595     0.667096342635
    C            0.465376576133     0.761719738938     0.244262871810
    C           -1.599875284039    -0.599150375161    -0.420251079881
    C            1.697608554496     0.161971019160    -0.432526349760
    H           -1.104859396675     0.056233413378     1.558271007285
    H           -0.053853451733    -1.216109738756     0.964946576363
    H            0.797003031596     1.320873205311     1.127916795568
    H           -0.008610282916     1.495481864829    -0.419985124439
    H           -1.121764294467    -0.979867404948    -1.330306585887
    H           -2.157490059157     0.304402693701    -0.689830150134
    H           -2.321111590132    -1.353162274696    -0.088130010199
    H            1.427848576594    -0.389717338458    -1.340604948901
    H            2.209098211288    -0.534436081397     0.240832084880
    H            2.413665617399     0.938679200214    -0.720632920074

*** Psi4 exiting successfully. Buy a developer a beer!
