                               Psi4 1.3.2 release

  ==> Input File <==

--------------------------------------------------------------------------
molecule {
0 1
 C   -0.162101   -0.948228   -0.376630
 C    0.379332    0.409302   -0.869441
 C   -0.938043   -0.907781    0.939717
 C    0.734549    1.412644    0.227590
 H    0.683218   -1.636474   -0.240112
 H   -0.784276   -1.393853   -1.161313
 H   -0.377679    0.878310   -1.512765
 H    1.250384    0.237448   -1.512205
 H   -1.816788   -0.254564    0.873424
 H   -0.313878   -0.547090    1.763129
 H   -1.292812   -1.909489    1.204842
 H    1.507171    1.021735    0.901050
 H   -0.139058    1.670943    0.834040
 H    1.120158    2.338612   -0.212271
}
memory 700MB
set_num_threads(8)
psi4_io.set_default_path("/home/daniele/PSI4_sctatch/Psi4-butane")
set freeze_core True
E, wfn = energy('wb97x-d/6-311+G*',return_wfn=True)
oeprop(wfn,"WIBERG_LOWDIN_INDICES")
clean()
--------------------------------------------------------------------------

    Molecular point group: c1

    Geometry (in Angstrom), charge = 0, multiplicity = 1:

       Center              X                  Y                   Z               Mass
    ------------   -----------------  -----------------  -----------------  -----------------
         C           -0.162101071244    -0.948227925289    -0.376629818588    12.000000000000
         C            0.379331928756     0.409302074711    -0.869440818588    12.000000000000
         C           -0.938043071244    -0.907780925289     0.939717181412    12.000000000000
         C            0.734548928756     1.412644074711     0.227590181412    12.000000000000
         H            0.683217928756    -1.636473925289    -0.240111818588     1.007825032230
         H           -0.784276071244    -1.393852925289    -1.161312818588     1.007825032230
         H           -0.377679071244     0.878310074711    -1.512764818588     1.007825032230
         H            1.250383928756     0.237448074711    -1.512204818588     1.007825032230
         H           -1.816788071244    -0.254563925289     0.873424181412     1.007825032230
         H           -0.313878071244    -0.547089925289     1.763129181412     1.007825032230
         H           -1.292812071244    -1.909488925289     1.204842181412     1.007825032230
         H            1.507170928756     1.021735074711     0.901050181412     1.007825032230
         H           -0.139058071244     1.670943074711     0.834040181412     1.007825032230
         H            1.120157928756     2.338612074711    -0.212270818588     1.007825032230

  Charge       = 0
  Multiplicity = 1
  Basis Set: 6-311+G*
    Blend: 6-311+G*
  Basis Set: (6-311+G* AUX)
    Blend: HEAVY-AUG-CC-PVTZ-JKFIT

    Orbital Energies [Eh]
    ---------------------

    Doubly Occupied:

       1A    -10.273939     2A    -10.273750     3A    -10.266136
       4A    -10.266126     5A     -0.892815     6A     -0.816714
       7A     -0.739882     8A     -0.653374     9A     -0.551866
      10A     -0.540830    11A     -0.497621    12A     -0.474073
      13A     -0.460182    14A     -0.443635    15A     -0.409077
      16A     -0.405092    17A     -0.392040

  @DF-RKS Final Energy:  -158.43347663199683

   => Energetics <=

    Nuclear Repulsion Energy =            132.7155034571952967
    One-Electron Energy =                -474.0139862671042579
    Two-Electron Energy =                 200.0432975328304508
    DFT Exchange-Correlation Energy =     -17.1715015333132328
    Empirical Dispersion Energy =          -0.0067898216051132
    VV10 Nonlocal Energy =                  0.0000000000000000
    Total Energy =                       -158.4334766319968253

  Dipole Moment: [D]
     X:     0.0152      Y:    -0.0378      Z:    -0.0875     Total:     0.0965

*** Psi4 exiting successfully. Buy a developer a beer!
