                               Psi4 1.3.2 release

  ==> Input File <==

--------------------------------------------------------------------------
molecule {
0 1
 C   -0.469638   -0.780306   -0.275994
 C    0.581277    0.280485   -0.699255
 C   -1.723270   -0.221658    0.405225
 C    1.635540    0.614493    0.361292
 H    0.002675   -1.553268    0.372696
 H   -0.800181   -1.324570   -1.191035
 H    0.073428    1.212928   -1.036886
 H    1.119392   -0.104139   -1.596565
 H   -2.265801    0.485652   -0.261856
 H   -1.463604    0.317777    1.343731
 H   -2.427013   -1.042284    0.671036
 H    2.221389   -0.287731    0.648252
 H    1.163025    1.027438    1.280777
 H    2.352656    1.375460   -0.020809
}
set optking {
  frozen_dihedral = ("
    3 1 2 4
    2 1 3 9
    1 2 4 12
  ")
}
set {
  geom_maxiter 5
  g_convergence GAU_LOOSE
  dynamic_level 1
}
memory 700MB
set_num_threads(8)
psi4_io.set_default_path("/home/daniele/PSI4_sctatch/Psi4-butane")
for _ in range(1):
  try:
    set opt_coordinates both
    optimize('wb97x-d/6-31G*')
    break
  except OptimizationConvergenceError:
    break
  else:
    try:
      set opt_coordinates cartesian
      optimize('wb97x-d/6-31G*')
      break
    except OptimizationConvergenceError:
      pass
clean()
--------------------------------------------------------------------------

    Molecular point group: c1
  Charge       = 0
  Multiplicity = 1
  Basis Set: 6-31G*
    Blend: 6-31G*
  Basis Set: (6-31G* AUX)
    Blend: CC-PVDZ-JKFIT
  @DF-RKS Final Energy:  -158.40282287604168
    Total Energy =                       -158.4028228760416823
    Molecular point group: c1
  Basis Set: 6-31G*
    Blend: 6-31G*
  Basis Set: (6-31G* AUX)
    Blend: CC-PVDZ-JKFIT
  Basis Set: 6-31G*
    Blend: 6-31G*
  Basis Set: (6-31G* AUX)
    Blend: CC-PVDZ-JKFIT
  @DF-RKS Final Energy:  -158.40526016445222
    Total Energy =                       -158.4052601644522440
  Basis Set: 6-31G*
    Blend: 6-31G*
  Basis Set: (6-31G* AUX)
    Blend: CC-PVDZ-JKFIT
  Charge       = 0
  Multiplicity = 1
  Basis Set: 6-31G*
    Blend: 6-31G*
  Basis Set: (6-31G* AUX)
    Blend: CC-PVDZ-JKFIT

    Orbital Energies [Eh]
    ---------------------

    Doubly Occupied:

       1A    -10.285615     2A    -10.285414     3A    -10.279156
       4A    -10.279155     5A     -0.887941     6A     -0.814340
       7A     -0.726091     8A     -0.659449     9A     -0.540022
      10A     -0.532464    11A     -0.500634    12A     -0.467242
      13A     -0.452190    14A     -0.439185    15A     -0.405127
      16A     -0.396195    17A     -0.392533

  @DF-RKS Final Energy:  -158.40532091227735

   => Energetics <=

    Nuclear Repulsion Energy =            131.6381296044027351
    One-Electron Energy =                -471.8518701509261177
    Two-Electron Energy =                 198.9603794676585835
    DFT Exchange-Correlation Energy =     -17.1454379640337464
    Empirical Dispersion Energy =          -0.0065218693787980
    VV10 Nonlocal Energy =                  0.0000000000000000
    Total Energy =                       -158.4053209122773183

  Dipole Moment: [D]
     X:     0.0077      Y:    -0.0346      Z:    -0.0675     Total:     0.0762

    Molecular point group: c1
  Basis Set: 6-31G*
    Blend: 6-31G*
  Basis Set: (6-31G* AUX)
    Blend: CC-PVDZ-JKFIT

  -Total Gradient:
     Atom            X                  Y                   Z
    ------   -----------------  -----------------  -----------------
       1        0.002504288645    -0.000993873278     0.003443901918
       2       -0.002982551177     0.003122677869     0.000709175408
       3       -0.001558018137    -0.000478567709    -0.002889950683
       4        0.002093947018    -0.001897098249    -0.001746096172
       5       -0.000130247229     0.000032689877    -0.000112452435
       6       -0.000071157108    -0.000000802101     0.000152383736
       7        0.000144836220    -0.000097490831    -0.000013942257
       8        0.000042970954     0.000129296181     0.000098542323
       9        0.000368143804     0.000231398338     0.000296477307
      10       -0.000134801651    -0.000099322856    -0.000213282358
      11        0.000036577780     0.000133180108    -0.000025888837
      12       -0.000437725367     0.000067632238     0.000290014808
      13        0.000179299962    -0.000100713619    -0.000177338785
      14       -0.000043841652    -0.000102275627     0.000085306167

  **** Optimization is complete! (in 3 steps) ****
    Final optimized geometry and variables:
    Molecular point group: c1

    Geometry (in Angstrom), charge = 0, multiplicity = 1:

    C           -0.462201336515    -0.764145378209    -0.242923923651
    C            0.566633832125     0.296910092469    -0.668826030242
    C           -1.695443186020    -0.169902316169     0.436894877185
    C            1.597754083069     0.606972577731     0.415989894943
    H            0.017081681835    -1.495517619371     0.420193469218
    H           -0.793388761599    -1.325049769252    -1.125596213199
    H            0.045444202132     1.215812961112    -0.966014246064
    H            1.101132979627    -0.051784091152    -1.561089689345
    H           -2.211071079928     0.523781358077    -0.236267041704
    H           -1.423873119593     0.389635507525     1.339697603925
    H           -2.406774402857    -0.948293556122     0.731391532759
    H            2.159656493181    -0.294533812013     0.683882718088
    H            1.118172612323     0.978322711324     1.329217860928
    H            2.313326973741     1.366796084944     0.085481639999

*** Psi4 exiting successfully. Buy a developer a beer!
