                               Psi4 1.3.2 release

  ==> Input File <==

--------------------------------------------------------------------------
molecule {
0 1
 C   -0.451876   -0.661338    0.056145
 C    0.493364    0.475933   -0.418035
 C   -1.941083   -0.301470    0.100530
 C    1.910781    0.436713    0.163624
 H   -0.155259   -0.974860    1.083541
 H   -0.300421   -1.558112   -0.587698
 H    0.047123    1.458332   -0.139463
 H    0.543072    0.472903   -1.531244
 H   -2.311527   -0.005023   -0.906550
 H   -2.134070    0.541303    0.802006
 H   -2.547544   -1.170891    0.440556
 H    2.427143   -0.512606   -0.103593
 H    1.896356    0.522128    1.273632
 H    2.523816    1.277265   -0.232841
}
set optking {
  frozen_dihedral = ("
    3 1 2 4
    2 1 3 9
    1 2 4 12
  ")
}
set {
  geom_maxiter 5
  g_convergence GAU_LOOSE
  dynamic_level 1
}
memory 700MB
set_num_threads(8)
psi4_io.set_default_path("/home/daniele/PSI4_sctatch/Psi4-butane")
for _ in range(1):
  try:
    set opt_coordinates both
    optimize('wb97x-d/6-31G*')
    break
  except OptimizationConvergenceError:
    break
  else:
    try:
      set opt_coordinates cartesian
      optimize('wb97x-d/6-31G*')
      break
    except OptimizationConvergenceError:
      pass
clean()
--------------------------------------------------------------------------

    Molecular point group: c1
  Charge       = 0
  Multiplicity = 1
  Basis Set: 6-31G*
    Blend: 6-31G*
  Basis Set: (6-31G* AUX)
    Blend: CC-PVDZ-JKFIT
  @DF-RKS Final Energy:  -158.40291547494070
    Total Energy =                       -158.4029154749407269
    Molecular point group: c1
  Basis Set: 6-31G*
    Blend: 6-31G*
  Basis Set: (6-31G* AUX)
    Blend: CC-PVDZ-JKFIT
  Basis Set: 6-31G*
    Blend: 6-31G*
  Basis Set: (6-31G* AUX)
    Blend: CC-PVDZ-JKFIT
  @DF-RKS Final Energy:  -158.40530765856607
    Total Energy =                       -158.4053076585661017
  Basis Set: 6-31G*
    Blend: 6-31G*
  Basis Set: (6-31G* AUX)
    Blend: CC-PVDZ-JKFIT
  Charge       = 0
  Multiplicity = 1
  Basis Set: 6-31G*
    Blend: 6-31G*
  Basis Set: (6-31G* AUX)
    Blend: CC-PVDZ-JKFIT

    Orbital Energies [Eh]
    ---------------------

    Doubly Occupied:

       1A    -10.285629     2A    -10.285429     3A    -10.279322
       4A    -10.279321     5A     -0.887575     6A     -0.816862
       7A     -0.720360     8A     -0.664518     9A     -0.550123
      10A     -0.506386    11A     -0.505693    12A     -0.486840
      13A     -0.445014    14A     -0.432846    15A     -0.404769
      16A     -0.396430    17A     -0.396417

  @DF-RKS Final Energy:  -158.40535355761526

   => Energetics <=

    Nuclear Repulsion Energy =            130.4500495355367207
    One-Electron Energy =                -469.4754419110001322
    Two-Electron Energy =                 197.7710505611445342
    DFT Exchange-Correlation Energy =     -17.1447649483035711
    Empirical Dispersion Energy =          -0.0062467949928313
    VV10 Nonlocal Energy =                  0.0000000000000000
    Total Energy =                       -158.4053535576152569

  Dipole Moment: [D]
     X:     0.0026      Y:    -0.0119      Z:    -0.0231     Total:     0.0261

    Molecular point group: c1
  Basis Set: 6-31G*
    Blend: 6-31G*
  Basis Set: (6-31G* AUX)
    Blend: CC-PVDZ-JKFIT

  -Total Gradient:
     Atom            X                  Y                   Z
    ------   -----------------  -----------------  -----------------
       1       -0.001274422239    -0.000481802191    -0.003303025535
       2        0.001887707895    -0.002250208651    -0.002026602414
       3        0.000512881930     0.001132009271     0.003042507271
       4       -0.001155250145     0.001731897074     0.002539569772
       5       -0.000139724679    -0.000075169749    -0.000125295659
       6       -0.000053944295    -0.000023920236     0.000213600695
       7        0.000166036829    -0.000043249562    -0.000106498151
       8        0.000016251427     0.000190728080     0.000111527767
       9       -0.000032349312    -0.000387145115     0.000210006735
      10       -0.000018912395    -0.000175579601    -0.000172589434
      11       -0.000004697495     0.000059158523    -0.000019587837
      12        0.000028987919     0.000398163997    -0.000182994951
      13        0.000066110009    -0.000033341182    -0.000235741376
      14        0.000003228704    -0.000050089530     0.000037948585

  **** Optimization is complete! (in 3 steps) ****
    Final optimized geometry and variables:
    Molecular point group: c1

    Geometry (in Angstrom), charge = 0, multiplicity = 1:

    C           -0.432101092367    -0.657943804751     0.076733583576
    C            0.469956800650     0.488667948266    -0.407246049055
    C           -1.912918568991    -0.285633801154     0.120765651698
    C            1.878158017867     0.441070035065     0.182718120638
    H           -0.121024533419    -0.950959287210     1.088792938115
    H           -0.282209974869    -1.544773581695    -0.551170148494
    H            0.010487938209     1.445378175631    -0.123548758838
    H            0.517481894788     0.492579899188    -1.503113749795
    H           -2.281102480490     0.003877871374    -0.870291557319
    H           -2.079705850741     0.559886581250     0.797110174960
    H           -2.526023319675    -1.122911161236     0.470589112412
    H            2.389989757933    -0.491594738107    -0.081359149779
    H            1.842293318214     0.502206775412     1.275943821031
    H            2.492959744021     1.271095480405    -0.181126663543

*** Psi4 exiting successfully. Buy a developer a beer!
