                               Psi4 1.3.2 release

  ==> Input File <==

--------------------------------------------------------------------------
molecule {
0 1
 C   -0.509379   -0.787642   -0.410988
 C    0.645142    0.179886   -0.774699
 C   -1.588814   -0.233556    0.525176
 C    1.483397    0.705485    0.395552
 H   -0.076086   -1.706568    0.047444
 H   -0.997687   -1.125011   -1.354606
 H    0.223020    1.048820   -1.330711
 H    1.323800   -0.334993   -1.493750
 H   -2.086205    0.657903    0.081084
 H   -1.165269    0.057252    1.512524
 H   -2.376000   -0.998334    0.712265
 H    1.968101   -0.129896    0.949224
 H    0.864583    1.288977    1.113526
 H    2.291273    1.377954    0.028570
}
set optking {
  frozen_dihedral = ("
    3 1 2 4
    2 1 3 9
    1 2 4 12
  ")
}
set {
  geom_maxiter 5
  g_convergence GAU_LOOSE
  dynamic_level 1
}
memory 700MB
set_num_threads(8)
psi4_io.set_default_path("/home/daniele/PSI4_sctatch/Psi4-butane")
for _ in range(1):
  try:
    set opt_coordinates both
    optimize('wb97x-d/6-31G*')
    break
  except OptimizationConvergenceError:
    break
  else:
    try:
      set opt_coordinates cartesian
      optimize('wb97x-d/6-31G*')
      break
    except OptimizationConvergenceError:
      pass
clean()
--------------------------------------------------------------------------

    Molecular point group: c1
  Charge       = 0
  Multiplicity = 1
  Basis Set: 6-31G*
    Blend: 6-31G*
  Basis Set: (6-31G* AUX)
    Blend: CC-PVDZ-JKFIT
  @DF-RKS Final Energy:  -158.40466075047198
    Total Energy =                       -158.4046607504719759
    Molecular point group: c1
  Basis Set: 6-31G*
    Blend: 6-31G*
  Basis Set: (6-31G* AUX)
    Blend: CC-PVDZ-JKFIT
  Basis Set: 6-31G*
    Blend: 6-31G*
  Basis Set: (6-31G* AUX)
    Blend: CC-PVDZ-JKFIT
  @DF-RKS Final Energy:  -158.40699662629686
    Total Energy =                       -158.4069966262968876
  Basis Set: 6-31G*
    Blend: 6-31G*
  Basis Set: (6-31G* AUX)
    Blend: CC-PVDZ-JKFIT
  Charge       = 0
  Multiplicity = 1
  Basis Set: 6-31G*
    Blend: 6-31G*
  Basis Set: (6-31G* AUX)
    Blend: CC-PVDZ-JKFIT

    Orbital Energies [Eh]
    ---------------------

    Doubly Occupied:

       1A    -10.286021     2A    -10.285814     3A    -10.278724
       4A    -10.278721     5A     -0.888213     6A     -0.812786
       7A     -0.731982     8A     -0.653319     9A     -0.540471
      10A     -0.537162    11A     -0.497164    12A     -0.463839
      13A     -0.459408    14A     -0.436642    15A     -0.399230
      16A     -0.398836    17A     -0.395618

  @DF-RKS Final Energy:  -158.40704243618771

   => Energetics <=

    Nuclear Repulsion Energy =            132.3133824970703643
    One-Electron Energy =                -473.2028145920838824
    Two-Electron Energy =                 199.6352146883540684
    DFT Exchange-Correlation Energy =     -17.1461353955006715
    Empirical Dispersion Energy =          -0.0066896340276339
    VV10 Nonlocal Energy =                  0.0000000000000000
    Total Energy =                       -158.4070424361877087

  Dipole Moment: [D]
     X:     0.0069      Y:    -0.0308      Z:    -0.0600     Total:     0.0678

    Molecular point group: c1
  Basis Set: 6-31G*
    Blend: 6-31G*
  Basis Set: (6-31G* AUX)
    Blend: CC-PVDZ-JKFIT

  -Total Gradient:
     Atom            X                  Y                   Z
    ------   -----------------  -----------------  -----------------
       1       -0.002322415522     0.001423362116    -0.001635570534
       2        0.002437365259    -0.001935183837     0.000637333504
       3        0.001226149903     0.000106215141     0.001363091930
       4       -0.001453693265     0.000918379960     0.000633955984
       5       -0.000172396914     0.000174529841    -0.000091799581
       6        0.000047077848    -0.000136430985     0.000144836156
       7        0.000169164776    -0.000160791639     0.000118644257
       8       -0.000059627887     0.000192213352    -0.000036546032
       9       -0.000563051917    -0.000775992582    -0.000274190811
      10       -0.000236526043    -0.000081866319    -0.000212070811
      11        0.000093553663     0.000267311834     0.000040891349
      12        0.000669971899     0.000287685071    -0.000676108436
      13        0.000277429781    -0.000100445455    -0.000143106719
      14       -0.000123706642    -0.000132804268     0.000221602431

  **** Optimization is complete! (in 3 steps) ****
    Final optimized geometry and variables:
    Molecular point group: c1

    Geometry (in Angstrom), charge = 0, multiplicity = 1:

    C           -0.508733071338    -0.760756864871    -0.370055409646
    C            0.634701522106     0.196878924799    -0.729999057063
    C           -1.562683950840    -0.168343930510     0.564735442550
    C            1.444681544051     0.696566615279     0.465755540406
    H           -0.084289729473    -1.661233442868     0.094676895513
    H           -0.994700008755    -1.095520017694    -1.294745660888
    H            0.218431081383     1.060832860007    -1.265992445808
    H            1.307461057387    -0.304552473157    -1.436572539277
    H           -2.034699190970     0.713975954114     0.116920567331
    H           -1.136129696532     0.128339378590     1.527763432566
    H           -2.354806585752    -0.896219977797     0.768198956434
    H            1.905978300505    -0.138761312630     1.005439307921
    H            0.826780583786     1.256851972028     1.174044617416
    H            2.251123867491     1.360828075903     0.138547352348

*** Psi4 exiting successfully. Buy a developer a beer!
