                               Psi4 1.3.2 release

  ==> Input File <==

--------------------------------------------------------------------------
molecule {
0 1
 C   -0.636451   -0.195278    0.728885
 C    0.510357    0.759137    0.371110
 C   -1.446673   -0.692876   -0.467549
 C    1.564707    0.165065   -0.562123
 H   -1.308338    0.307710    1.435146
 H   -0.223002   -1.060456    1.265147
 H    0.995162    1.092728    1.296808
 H    0.088736    1.660762   -0.094035
 H   -0.824271   -1.240290   -1.182026
 H   -1.901908    0.146112   -1.007014
 H   -2.252741   -1.360590   -0.147534
 H    1.133885   -0.144667   -1.519193
 H    2.030397   -0.719749   -0.112236
 H    2.358046    0.889218   -0.772396
}
memory 700MB
set_num_threads(8)
psi4_io.set_default_path("/home/daniele/PSI4_sctatch/Psi4-butane")
set freeze_core True
E, wfn = energy('wb97x-d/6-311+G*',return_wfn=True)
oeprop(wfn,"WIBERG_LOWDIN_INDICES")
clean()
--------------------------------------------------------------------------

    Molecular point group: c1

    Geometry (in Angstrom), charge = 0, multiplicity = 1:

       Center              X                  Y                   Z               Mass
    ------------   -----------------  -----------------  -----------------  -----------------
         C           -0.636450947262    -0.195277919488     0.728885157679    12.000000000000
         C            0.510357052738     0.759137080512     0.371110157679    12.000000000000
         C           -1.446672947262    -0.692875919488    -0.467548842321    12.000000000000
         C            1.564707052738     0.165065080512    -0.562122842321    12.000000000000
         H           -1.308337947262     0.307710080512     1.435146157679     1.007825032230
         H           -0.223001947262    -1.060455919488     1.265147157679     1.007825032230
         H            0.995162052738     1.092728080512     1.296808157679     1.007825032230
         H            0.088736052738     1.660762080512    -0.094034842321     1.007825032230
         H           -0.824270947262    -1.240289919488    -1.182025842321     1.007825032230
         H           -1.901907947262     0.146112080512    -1.007013842321     1.007825032230
         H           -2.252740947262    -1.360589919488    -0.147533842321     1.007825032230
         H            1.133885052738    -0.144666919488    -1.519192842321     1.007825032230
         H            2.030397052738    -0.719748919488    -0.112235842321     1.007825032230
         H            2.358046052738     0.889218080512    -0.772395842321     1.007825032230

  Charge       = 0
  Multiplicity = 1
  Basis Set: 6-311+G*
    Blend: 6-311+G*
  Basis Set: (6-311+G* AUX)
    Blend: HEAVY-AUG-CC-PVTZ-JKFIT

    Orbital Energies [Eh]
    ---------------------

    Doubly Occupied:

       1A    -10.274296     2A    -10.274092     3A    -10.266160
       4A    -10.266156     5A     -0.894165     6A     -0.818067
       7A     -0.737032     8A     -0.658267     9A     -0.546055
      10A     -0.543435    11A     -0.502507    12A     -0.469572
      13A     -0.465669    14A     -0.441387    15A     -0.405422
      16A     -0.404112    17A     -0.401195

  @DF-RKS Final Energy:  -158.43689055502108

   => Energetics <=

    Nuclear Repulsion Energy =            132.3254049557134522
    One-Electron Energy =                -473.2198291477448038
    Two-Electron Energy =                 199.6359686775258808
    DFT Exchange-Correlation Energy =     -17.1717441093091878
    Empirical Dispersion Energy =          -0.0066909312064110
    VV10 Nonlocal Energy =                  0.0000000000000000
    Total Energy =                       -158.4368905550210513

  Dipole Moment: [D]
     X:    -0.0109      Y:     0.0485      Z:     0.0947     Total:     0.1070

*** Psi4 exiting successfully. Buy a developer a beer!
