                               Psi4 1.3.2 release

  ==> Input File <==

--------------------------------------------------------------------------
molecule {
0 1
 C   -0.517401   -0.394478    0.553526
 C    0.443673    0.724383    0.090308
 C   -1.766413   -0.519065   -0.318371
 C    1.835005    0.212158   -0.280599
 H   -0.820824   -0.226344    1.593390
 H    0.013291   -1.355296    0.550389
 H    0.538687    1.488732    0.870303
 H    0.012847    1.238337   -0.778629
 H   -1.497154   -0.743789   -1.356848
 H   -2.340098    0.414499   -0.319319
 H   -2.426731   -1.317780    0.036130
 H    1.778358   -0.514908   -1.098892
 H    2.311259   -0.284834    0.571952
 H    2.491522    1.027561   -0.602680
}
memory 700MB
set_num_threads(8)
psi4_io.set_default_path("/home/daniele/PSI4_sctatch/Psi4-butane")
set freeze_core True
E, wfn = energy('wb97x-d/6-311+G*',return_wfn=True)
oeprop(wfn,"WIBERG_LOWDIN_INDICES")
clean()
--------------------------------------------------------------------------

    Molecular point group: c1

    Geometry (in Angstrom), charge = 0, multiplicity = 1:

       Center              X                  Y                   Z               Mass
    ------------   -----------------  -----------------  -----------------  -----------------
         C           -0.517401061219    -0.394478195151     0.553526278306    12.000000000000
         C            0.443672938781     0.724382804849     0.090308278306    12.000000000000
         C           -1.766413061219    -0.519065195151    -0.318370721694    12.000000000000
         C            1.835004938781     0.212157804849    -0.280598721694    12.000000000000
         H           -0.820824061219    -0.226344195151     1.593390278306     1.007825032230
         H            0.013290938781    -1.355296195151     0.550389278306     1.007825032230
         H            0.538686938781     1.488731804849     0.870303278306     1.007825032230
         H            0.012846938781     1.238336804849    -0.778628721694     1.007825032230
         H           -1.497154061219    -0.743789195151    -1.356847721694     1.007825032230
         H           -2.340098061219     0.414498804849    -0.319318721694     1.007825032230
         H           -2.426731061219    -1.317780195151     0.036130278306     1.007825032230
         H            1.778357938781    -0.514908195151    -1.098891721694     1.007825032230
         H            2.311258938781    -0.284834195151     0.571952278306     1.007825032230
         H            2.491521938781     1.027560804849    -0.602679721694     1.007825032230

  Charge       = 0
  Multiplicity = 1
  Basis Set: 6-311+G*
    Blend: 6-311+G*
  Basis Set: (6-311+G* AUX)
    Blend: HEAVY-AUG-CC-PVTZ-JKFIT

    Orbital Energies [Eh]
    ---------------------

    Doubly Occupied:

       1A    -10.273732     2A    -10.273546     3A    -10.266890
       4A    -10.266887     5A     -0.892228     6A     -0.821522
       7A     -0.726497     8A     -0.668503     9A     -0.550682
      10A     -0.524696    11A     -0.509477    12A     -0.482981
      13A     -0.447244    14A     -0.447090    15A     -0.409976
      16A     -0.401363    17A     -0.398142

  @DF-RKS Final Energy:  -158.43258481214860

   => Energetics <=

    Nuclear Repulsion Energy =            130.7086299128561677
    One-Electron Energy =                -469.9924047005970351
    Two-Electron Energy =                 198.0264688043864965
    DFT Exchange-Correlation Energy =     -17.1690050148887821
    Empirical Dispersion Energy =          -0.0062738139054702
    VV10 Nonlocal Energy =                  0.0000000000000000
    Total Energy =                       -158.4325848121486047

  Dipole Moment: [D]
     X:    -0.0080      Y:     0.0356      Z:     0.0695     Total:     0.0785

*** Psi4 exiting successfully. Buy a developer a beer!
