                               Psi4 1.3.2 release

  ==> Input File <==

--------------------------------------------------------------------------
molecule {
0 1
 C   -0.470568   -0.488187    0.407150
 C    0.432679    0.657611   -0.076515
 C   -1.878333   -0.439296   -0.183715
 C    1.913114    0.283778   -0.119784
 H   -0.518637   -0.491903    1.502986
 H   -0.011868   -1.445348    0.123823
 H    0.283224    1.544606    0.551245
 H    0.122434    0.950844   -1.088741
 H   -1.840971   -0.503199   -1.276780
 H   -2.385603    0.497775    0.073500
 H   -2.497210   -1.264944    0.182848
 H    2.078730   -0.560438   -0.798123
 H    2.277550   -0.013853    0.870260
 H    2.529367    1.120879   -0.464115
}
memory 700MB
set_num_threads(8)
psi4_io.set_default_path("/home/daniele/PSI4_sctatch/Psi4-butane")
set freeze_core True
E, wfn = energy('wb97x-d/6-311+G*',return_wfn=True)
oeprop(wfn,"WIBERG_LOWDIN_INDICES")
clean()
--------------------------------------------------------------------------

    Molecular point group: c1

    Geometry (in Angstrom), charge = 0, multiplicity = 1:

       Center              X                  Y                   Z               Mass
    ------------   -----------------  -----------------  -----------------  -----------------
         C           -0.470568166179    -0.488186919477     0.407149883682    12.000000000000
         C            0.432678833821     0.657611080523    -0.076515116318    12.000000000000
         C           -1.878333166179    -0.439295919477    -0.183715116318    12.000000000000
         C            1.913113833821     0.283778080523    -0.119784116318    12.000000000000
         H           -0.518637166179    -0.491902919477     1.502985883682     1.007825032230
         H           -0.011868166179    -1.445347919477     0.123822883682     1.007825032230
         H            0.283223833821     1.544606080523     0.551244883682     1.007825032230
         H            0.122433833821     0.950844080523    -1.088741116318     1.007825032230
         H           -1.840971166179    -0.503198919477    -1.276780116318     1.007825032230
         H           -2.385603166179     0.497775080523     0.073499883682     1.007825032230
         H           -2.497210166179    -1.264943919477     0.182847883682     1.007825032230
         H            2.078729833821    -0.560437919477    -0.798123116318     1.007825032230
         H            2.277549833821    -0.013852919477     0.870259883682     1.007825032230
         H            2.529366833821     1.120879080523    -0.464115116318     1.007825032230

  Charge       = 0
  Multiplicity = 1
  Basis Set: 6-311+G*
    Blend: 6-311+G*
  Basis Set: (6-311+G* AUX)
    Blend: HEAVY-AUG-CC-PVTZ-JKFIT

    Orbital Energies [Eh]
    ---------------------

    Doubly Occupied:

       1A    -10.273935     2A    -10.273738     3A    -10.266812
       4A    -10.266809     5A     -0.893497     6A     -0.822249
       7A     -0.725285     8A     -0.669577     9A     -0.556060
      10A     -0.512312    11A     -0.511593    12A     -0.492285
      13A     -0.450450    14A     -0.437920    15A     -0.410682
      16A     -0.402766    17A     -0.401510

  @DF-RKS Final Energy:  -158.43526396511336

   => Energetics <=

    Nuclear Repulsion Energy =            130.4583084135885258
    One-Electron Energy =                -469.4847257964042342
    Two-Electron Energy =                 197.7673314752143199
    DFT Exchange-Correlation Energy =     -17.1699288551698359
    Empirical Dispersion Energy =          -0.0062492023421740
    VV10 Nonlocal Energy =                  0.0000000000000000
    Total Energy =                       -158.4352639651133643

  Dipole Moment: [D]
     X:    -0.0034      Y:     0.0150      Z:     0.0293     Total:     0.0331

*** Psi4 exiting successfully. Buy a developer a beer!
