                               Psi4 1.3.2 release

  ==> Input File <==

--------------------------------------------------------------------------
molecule {
0 1
 C   -0.508733   -0.760757   -0.370055
 C    0.634702    0.196879   -0.729999
 C   -1.562684   -0.168344    0.564735
 C    1.444682    0.696567    0.465756
 H   -0.084290   -1.661233    0.094677
 H   -0.994700   -1.095520   -1.294746
 H    0.218431    1.060833   -1.265992
 H    1.307461   -0.304552   -1.436573
 H   -2.034699    0.713976    0.116921
 H   -1.136130    0.128339    1.527763
 H   -2.354807   -0.896220    0.768199
 H    1.905978   -0.138761    1.005439
 H    0.826781    1.256852    1.174045
 H    2.251124    1.360828    0.138547
}
memory 700MB
set_num_threads(8)
psi4_io.set_default_path("/home/daniele/PSI4_sctatch/Psi4-butane")
set freeze_core True
E, wfn = energy('wb97x-d/6-311+G*',return_wfn=True)
oeprop(wfn,"WIBERG_LOWDIN_INDICES")
clean()
--------------------------------------------------------------------------

    Molecular point group: c1

    Geometry (in Angstrom), charge = 0, multiplicity = 1:

       Center              X                  Y                   Z               Mass
    ------------   -----------------  -----------------  -----------------  -----------------
         C           -0.508733185747    -0.760757069817    -0.370055091561    12.000000000000
         C            0.634701814253     0.196878930183    -0.729999091561    12.000000000000
         C           -1.562684185747    -0.168344069817     0.564734908439    12.000000000000
         C            1.444681814253     0.696566930183     0.465755908439    12.000000000000
         H           -0.084290185747    -1.661233069817     0.094676908439     1.007825032230
         H           -0.994700185747    -1.095520069817    -1.294746091561     1.007825032230
         H            0.218430814253     1.060832930183    -1.265992091561     1.007825032230
         H            1.307460814253    -0.304552069817    -1.436573091561     1.007825032230
         H           -2.034699185747     0.713975930183     0.116920908439     1.007825032230
         H           -1.136130185747     0.128338930183     1.527762908439     1.007825032230
         H           -2.354807185747    -0.896220069817     0.768198908439     1.007825032230
         H            1.905977814253    -0.138761069817     1.005438908439     1.007825032230
         H            0.826780814253     1.256851930183     1.174044908439     1.007825032230
         H            2.251123814253     1.360827930183     0.138546908439     1.007825032230

  Charge       = 0
  Multiplicity = 1
  Basis Set: 6-311+G*
    Blend: 6-311+G*
  Basis Set: (6-311+G* AUX)
    Blend: HEAVY-AUG-CC-PVTZ-JKFIT

    Orbital Energies [Eh]
    ---------------------

    Doubly Occupied:

       1A    -10.274200     2A    -10.273997     3A    -10.266101
       4A    -10.266098     5A     -0.894050     6A     -0.818082
       7A     -0.736900     8A     -0.658116     9A     -0.546326
      10A     -0.543098    11A     -0.502651    12A     -0.469655
      13A     -0.464647    14A     -0.442050    15A     -0.404922
      16A     -0.404336    17A     -0.401160

  @DF-RKS Final Energy:  -158.43693204303401

   => Energetics <=

    Nuclear Repulsion Energy =            132.3133782711790900
    One-Electron Energy =                -473.1982979200972750
    Two-Electron Energy =                 199.6263389037551121
    DFT Exchange-Correlation Energy =     -17.1716616640161099
    Empirical Dispersion Energy =          -0.0066896338548157
    VV10 Nonlocal Energy =                  0.0000000000000000
    Total Energy =                       -158.4369320430340053

  Dipole Moment: [D]
     X:     0.0111      Y:    -0.0495      Z:    -0.0966     Total:     0.1091

*** Psi4 exiting successfully. Buy a developer a beer!
