                               Psi4 1.3.2 release

  ==> Input File <==

--------------------------------------------------------------------------
molecule {
0 1
 C   -0.793834   -0.145502    0.671908
 C    0.533378    0.665701    0.612784
 C   -1.127993   -1.008510   -0.547396
 C    1.372611    0.519896   -0.659148
 H   -1.628026    0.544963    0.835870
 H   -0.776104   -0.796169    1.552866
 H    1.161059    0.390244    1.466975
 H    0.307589    1.729080    0.746876
 H   -0.359447   -1.763757   -0.734709
 H   -1.234162   -0.409189   -1.456060
 H   -2.073635   -1.534962   -0.386934
 H    0.823829    0.838332   -1.550089
 H    1.695237   -0.512988   -0.817850
 H    2.272229    1.138364   -0.587438
}
memory 700MB
set_num_threads(8)
psi4_io.set_default_path("/home/daniele/PSI4_sctatch/Psi4-butane")
set freeze_core True
E, wfn = energy('wb97x-d/6-311+G*',return_wfn=True)
oeprop(wfn,"WIBERG_LOWDIN_INDICES")
clean()
--------------------------------------------------------------------------

    Molecular point group: c1

    Geometry (in Angstrom), charge = 0, multiplicity = 1:

       Center              X                  Y                   Z               Mass
    ------------   -----------------  -----------------  -----------------  -----------------
         C           -0.793833802999    -0.145501916427     0.671907967935    12.000000000000
         C            0.533378197001     0.665701083573     0.612783967935    12.000000000000
         C           -1.127992802999    -1.008509916427    -0.547396032065    12.000000000000
         C            1.372611197001     0.519896083573    -0.659148032065    12.000000000000
         H           -1.628025802999     0.544963083573     0.835869967935     1.007825032230
         H           -0.776103802999    -0.796168916427     1.552865967935     1.007825032230
         H            1.161059197001     0.390244083573     1.466974967935     1.007825032230
         H            0.307589197001     1.729080083573     0.746875967935     1.007825032230
         H           -0.359446802999    -1.763756916427    -0.734709032065     1.007825032230
         H           -1.234161802999    -0.409188916427    -1.456060032065     1.007825032230
         H           -2.073634802999    -1.534961916427    -0.386934032065     1.007825032230
         H            0.823829197001     0.838332083573    -1.550089032065     1.007825032230
         H            1.695237197001    -0.512987916427    -0.817850032065     1.007825032230
         H            2.272229197001     1.138364083573    -0.587438032065     1.007825032230

  Charge       = 0
  Multiplicity = 1
  Basis Set: 6-311+G*
    Blend: 6-311+G*
  Basis Set: (6-311+G* AUX)
    Blend: HEAVY-AUG-CC-PVTZ-JKFIT

    Orbital Energies [Eh]
    ---------------------

    Doubly Occupied:

       1A    -10.273879     2A    -10.273710     3A    -10.265680
       4A    -10.265661     5A     -0.889884     6A     -0.817541
       7A     -0.740018     8A     -0.652528     9A     -0.554326
      10A     -0.537660    11A     -0.494083    12A     -0.474980
      13A     -0.459755    14A     -0.447838    15A     -0.408927
      16A     -0.403986    17A     -0.388333

  @DF-RKS Final Energy:  -158.42939541376467

   => Energetics <=

    Nuclear Repulsion Energy =            132.3013095145364275
    One-Electron Energy =                -473.1938607482469479
    Two-Electron Energy =                 199.6422463799831348
    DFT Exchange-Correlation Energy =     -17.1723782184229812
    Empirical Dispersion Energy =          -0.0067123416143372
    VV10 Nonlocal Energy =                  0.0000000000000000
    Total Energy =                       -158.4293954137646665

  Dipole Moment: [D]
     X:    -0.0203      Y:     0.0408      Z:     0.1002     Total:     0.1101

*** Psi4 exiting successfully. Buy a developer a beer!
