                               Psi4 1.3.2 release

  ==> Input File <==

--------------------------------------------------------------------------
molecule {
0 1
 C   -0.439987   -0.726869   -0.088853
 C    0.513769    0.396796   -0.555339
 C   -1.832831   -0.221466    0.285748
 C    1.764200    0.528495    0.313467
 H   -0.003885   -1.238158    0.779070
 H   -0.533197   -1.492072   -0.868213
 H   -0.022167    1.354737   -0.551560
 H    0.815417    0.229540   -1.595850
 H   -2.315566    0.268256   -0.567473
 H   -1.776119    0.512700    1.097745
 H   -2.483020   -1.038261    0.616608
 H    2.345035   -0.400731    0.309301
 H    1.495305    0.743814    1.354088
 H    2.416861    1.334557   -0.038195
}
memory 700MB
set_num_threads(8)
psi4_io.set_default_path("/home/daniele/PSI4_sctatch/Psi4-butane")
set freeze_core True
E, wfn = energy('wb97x-d/6-311+G*',return_wfn=True)
oeprop(wfn,"WIBERG_LOWDIN_INDICES")
clean()
--------------------------------------------------------------------------

    Molecular point group: c1

    Geometry (in Angstrom), charge = 0, multiplicity = 1:

       Center              X                  Y                   Z               Mass
    ------------   -----------------  -----------------  -----------------  -----------------
         C           -0.439986931882    -0.726869018045    -0.088852784241    12.000000000000
         C            0.513769068118     0.396795981955    -0.555338784241    12.000000000000
         C           -1.832830931882    -0.221466018045     0.285748215759    12.000000000000
         C            1.764200068118     0.528494981955     0.313467215759    12.000000000000
         H           -0.003884931882    -1.238158018045     0.779070215759     1.007825032230
         H           -0.533196931882    -1.492072018045    -0.868212784241     1.007825032230
         H           -0.022166931882     1.354736981955    -0.551559784241     1.007825032230
         H            0.815417068118     0.229539981955    -1.595849784241     1.007825032230
         H           -2.315565931882     0.268255981955    -0.567472784241     1.007825032230
         H           -1.776118931882     0.512699981955     1.097745215759     1.007825032230
         H           -2.483019931882    -1.038261018045     0.616608215759     1.007825032230
         H            2.345035068118    -0.400731018045     0.309301215759     1.007825032230
         H            1.495305068118     0.743813981955     1.354088215759     1.007825032230
         H            2.416861068118     1.334556981955    -0.038194784241     1.007825032230

  Charge       = 0
  Multiplicity = 1
  Basis Set: 6-311+G*
    Blend: 6-311+G*
  Basis Set: (6-311+G* AUX)
    Blend: HEAVY-AUG-CC-PVTZ-JKFIT

    Orbital Energies [Eh]
    ---------------------

    Doubly Occupied:

       1A    -10.273746     2A    -10.273561     3A    -10.266906
       4A    -10.266903     5A     -0.892268     6A     -0.821508
       7A     -0.726493     8A     -0.668546     9A     -0.550698
      10A     -0.524649    11A     -0.509565    12A     -0.482967
      13A     -0.447339    14A     -0.446959    15A     -0.409941
      16A     -0.401486    17A     -0.398128

  @DF-RKS Final Energy:  -158.43259015904511

   => Energetics <=

    Nuclear Repulsion Energy =            130.7167832495457276
    One-Electron Energy =                -470.0083098850652732
    Two-Electron Energy =                 198.0342117023453454
    DFT Exchange-Correlation Energy =     -17.1689994257706147
    Empirical Dispersion Energy =          -0.0062758001003182
    VV10 Nonlocal Energy =                  0.0000000000000000
    Total Energy =                       -158.4325901590451053

  Dipole Moment: [D]
     X:     0.0080      Y:    -0.0356      Z:    -0.0695     Total:     0.0785

*** Psi4 exiting successfully. Buy a developer a beer!
