                               Psi4 1.3.2 release

  ==> Input File <==

--------------------------------------------------------------------------
molecule {
0 1
 C   -0.454984   -0.732824   -0.116383
 C    0.533955    0.379602   -0.573058
 C   -1.861196   -0.252063    0.257976
 C    1.799742    0.526757    0.278199
 H   -0.028574   -1.289283    0.749451
 H   -0.545093   -1.488078   -0.931255
 H    0.011999    1.363349   -0.604968
 H    0.837956    0.177764   -1.626346
 H   -2.358015    0.250817   -0.602168
 H   -1.826193    0.467818    1.106527
 H   -2.503005   -1.107724    0.566367
 H    2.394434   -0.414499    0.283178
 H    1.546964    0.781787    1.332001
 H    2.451885    1.336855   -0.118910
}
set optking {
  frozen_dihedral = ("
    3 1 2 4
    2 1 3 9
    1 2 4 12
  ")
}
set {
  geom_maxiter 5
  g_convergence GAU_LOOSE
  dynamic_level 1
}
memory 700MB
set_num_threads(8)
psi4_io.set_default_path("/home/daniele/PSI4_sctatch/Psi4-butane")
for _ in range(1):
  try:
    set opt_coordinates both
    optimize('wb97x-d/6-31G*')
    break
  except OptimizationConvergenceError:
    break
  else:
    try:
      set opt_coordinates cartesian
      optimize('wb97x-d/6-31G*')
      break
    except OptimizationConvergenceError:
      pass
clean()
--------------------------------------------------------------------------

    Molecular point group: c1
  Charge       = 0
  Multiplicity = 1
  Basis Set: 6-31G*
    Blend: 6-31G*
  Basis Set: (6-31G* AUX)
    Blend: CC-PVDZ-JKFIT
  @DF-RKS Final Energy:  -158.40015905207287
    Total Energy =                       -158.4001590520728371
    Molecular point group: c1
  Basis Set: 6-31G*
    Blend: 6-31G*
  Basis Set: (6-31G* AUX)
    Blend: CC-PVDZ-JKFIT
  Basis Set: 6-31G*
    Blend: 6-31G*
  Basis Set: (6-31G* AUX)
    Blend: CC-PVDZ-JKFIT
  @DF-RKS Final Energy:  -158.40258181260413
    Total Energy =                       -158.4025818126040974
  Basis Set: 6-31G*
    Blend: 6-31G*
  Basis Set: (6-31G* AUX)
    Blend: CC-PVDZ-JKFIT
  Charge       = 0
  Multiplicity = 1
  Basis Set: 6-31G*
    Blend: 6-31G*
  Basis Set: (6-31G* AUX)
    Blend: CC-PVDZ-JKFIT

    Orbital Energies [Eh]
    ---------------------

    Doubly Occupied:

       1A    -10.285447     2A    -10.285260     3A    -10.279391
       4A    -10.279388     5A     -0.886364     6A     -0.816071
       7A     -0.721503     8A     -0.663527     9A     -0.544644
      10A     -0.518783    11A     -0.503811    12A     -0.477458
      13A     -0.441914    14A     -0.441364    15A     -0.404212
      16A     -0.395390    17A     -0.392885

  @DF-RKS Final Energy:  -158.40262952763371

   => Energetics <=

    Nuclear Repulsion Energy =            130.7167973377384271
    One-Electron Energy =                -470.0158885965150262
    Two-Electron Energy =                 198.0468147914233157
    DFT Exchange-Correlation Energy =     -17.1440772606512226
    Empirical Dispersion Energy =          -0.0062757996292445
    VV10 Nonlocal Energy =                  0.0000000000000000
    Total Energy =                       -158.4026295276337066

  Dipole Moment: [D]
     X:     0.0062      Y:    -0.0277      Z:    -0.0541     Total:     0.0611

    Molecular point group: c1
  Basis Set: 6-31G*
    Blend: 6-31G*
  Basis Set: (6-31G* AUX)
    Blend: CC-PVDZ-JKFIT

  -Total Gradient:
     Atom            X                  Y                   Z
    ------   -----------------  -----------------  -----------------
       1       -0.000310522711     0.000302866437    -0.000257768908
       2        0.000322652395    -0.000353688261     0.000165224878
       3        0.000098692655    -0.000442281417     0.000112197652
       4       -0.000075908147     0.000342066346    -0.000319952056
       5       -0.000117721881    -0.000021315722    -0.000115188320
       6       -0.000086028131    -0.000086030444     0.000201808732
       7        0.000138335469    -0.000068104728    -0.000061850552
       8        0.000056089686     0.000220308088     0.000061198272
       9        0.000154932412     0.000081217516     0.000254682581
      10       -0.000105502609    -0.000103339963    -0.000160037968
      11        0.000019955237     0.000047703950     0.000009833727
      12       -0.000207089546     0.000141541670     0.000186891244
      13        0.000141478207    -0.000058887188    -0.000154995972
      14       -0.000025894439    -0.000021534294     0.000039224713

  **** Optimization is complete! (in 3 steps) ****
    Final optimized geometry and variables:
    Molecular point group: c1

    Geometry (in Angstrom), charge = 0, multiplicity = 1:

    C           -0.439987423122    -0.726868640924    -0.088852647260
    C            0.513769100557     0.396795584368    -0.555338582923
    C           -1.832830659289    -0.221466472468     0.285748041532
    C            1.764200331677     0.528495480463     0.313467204630
    H           -0.003885391195    -1.238157591031     0.779069660681
    H           -0.533196594172    -1.492071861037    -0.868212873555
    H           -0.022167228569     1.354736582052    -0.551560423955
    H            0.815416714216     0.229539832350    -1.595849547409
    H           -2.315566089398     0.268255730639    -0.567472711465
    H           -1.776118877441     0.512699773565     1.097745491986
    H           -2.483019709711    -1.038261264190     0.616607909345
    H            2.345034552809    -0.400730662347     0.309300690568
    H            1.495305228550     0.743814362637     1.354088475522
    H            2.416861155091     1.334556635726    -0.038195335185

*** Psi4 exiting successfully. Buy a developer a beer!
