                               Psi4 1.3.2 release

  ==> Input File <==

--------------------------------------------------------------------------
molecule {
0 1
 C   -0.432101   -0.657944    0.076734
 C    0.469957    0.488668   -0.407246
 C   -1.912919   -0.285634    0.120766
 C    1.878158    0.441070    0.182718
 H   -0.121025   -0.950959    1.088793
 H   -0.282210   -1.544774   -0.551170
 H    0.010488    1.445378   -0.123549
 H    0.517482    0.492580   -1.503114
 H   -2.281102    0.003878   -0.870292
 H   -2.079706    0.559887    0.797110
 H   -2.526023   -1.122911    0.470589
 H    2.389990   -0.491595   -0.081359
 H    1.842293    0.502207    1.275944
 H    2.492960    1.271095   -0.181127
}
memory 700MB
set_num_threads(8)
psi4_io.set_default_path("/home/daniele/PSI4_sctatch/Psi4-butane")
set freeze_core True
E, wfn = energy('wb97x-d/6-311+G*',return_wfn=True)
oeprop(wfn,"WIBERG_LOWDIN_INDICES")
clean()
--------------------------------------------------------------------------

    Molecular point group: c1

    Geometry (in Angstrom), charge = 0, multiplicity = 1:

       Center              X                  Y                   Z               Mass
    ------------   -----------------  -----------------  -----------------  -----------------
         C           -0.432100976309    -0.657943921757     0.076733874463    12.000000000000
         C            0.469957023691     0.488668078243    -0.407246125537    12.000000000000
         C           -1.912918976309    -0.285633921757     0.120765874463    12.000000000000
         C            1.878158023691     0.441070078243     0.182717874463    12.000000000000
         H           -0.121024976309    -0.950958921757     1.088792874463     1.007825032230
         H           -0.282209976309    -1.544773921757    -0.551170125537     1.007825032230
         H            0.010488023691     1.445378078243    -0.123549125537     1.007825032230
         H            0.517482023691     0.492580078243    -1.503114125537     1.007825032230
         H           -2.281101976309     0.003878078243    -0.870292125537     1.007825032230
         H           -2.079705976309     0.559887078243     0.797109874463     1.007825032230
         H           -2.526022976309    -1.122910921757     0.470588874463     1.007825032230
         H            2.389990023691    -0.491594921757    -0.081359125537     1.007825032230
         H            1.842293023691     0.502207078243     1.275943874463     1.007825032230
         H            2.492960023691     1.271095078243    -0.181127125537     1.007825032230

  Charge       = 0
  Multiplicity = 1
  Basis Set: 6-311+G*
    Blend: 6-311+G*
  Basis Set: (6-311+G* AUX)
    Blend: HEAVY-AUG-CC-PVTZ-JKFIT

    Orbital Energies [Eh]
    ---------------------

    Doubly Occupied:

       1A    -10.273913     2A    -10.273716     3A    -10.266807
       4A    -10.266804     5A     -0.893451     6A     -0.822250
       7A     -0.725304     8A     -0.669493     9A     -0.556121
      10A     -0.512116    11A     -0.511579    12A     -0.492384
      13A     -0.450303    14A     -0.438147    15A     -0.410677
      16A     -0.402545    17A     -0.401589

  @DF-RKS Final Energy:  -158.43525756526182

   => Energetics <=

    Nuclear Repulsion Energy =            130.4500403330950462
    One-Electron Energy =                -469.4687834135540925
    Two-Electron Energy =                 197.7596077914465980
    DFT Exchange-Correlation Energy =     -17.1698754807715055
    Empirical Dispersion Energy =          -0.0062467954778479
    VV10 Nonlocal Energy =                  0.0000000000000000
    Total Energy =                       -158.4352575652617929

  Dipole Moment: [D]
     X:     0.0034      Y:    -0.0152      Z:    -0.0296     Total:     0.0334

*** Psi4 exiting successfully. Buy a developer a beer!
