                               Psi4 1.3.2 release

  ==> Input File <==

--------------------------------------------------------------------------
molecule {
0 1
 C   -0.648120   -0.177231    0.773336
 C    0.512179    0.785285    0.412903
 C   -1.487340   -0.699621   -0.398004
 C    1.592631    0.228649   -0.520787
 H   -1.325665    0.339997    1.491822
 H   -0.230482   -1.048626    1.329113
 H    0.999052    1.120934    1.358039
 H    0.083549    1.705906   -0.046879
 H   -0.866430   -1.268318   -1.125768
 H   -1.974598    0.138069   -0.945876
 H   -2.290826   -1.379882   -0.036064
 H    1.167611   -0.079169   -1.502325
 H    2.091278   -0.659252   -0.070985
 H    2.377039    0.993532   -0.717916
}
set optking {
  frozen_dihedral = ("
    3 1 2 4
    2 1 3 9
    1 2 4 12
  ")
}
set {
  geom_maxiter 5
  g_convergence GAU_LOOSE
  dynamic_level 1
}
memory 700MB
set_num_threads(8)
psi4_io.set_default_path("/home/daniele/PSI4_sctatch/Psi4-butane")
for _ in range(1):
  try:
    set opt_coordinates both
    optimize('wb97x-d/6-31G*')
    break
  except OptimizationConvergenceError:
    break
  else:
    try:
      set opt_coordinates cartesian
      optimize('wb97x-d/6-31G*')
      break
    except OptimizationConvergenceError:
      pass
clean()
--------------------------------------------------------------------------

    Molecular point group: c1
  Charge       = 0
  Multiplicity = 1
  Basis Set: 6-31G*
    Blend: 6-31G*
  Basis Set: (6-31G* AUX)
    Blend: CC-PVDZ-JKFIT
  @DF-RKS Final Energy:  -158.40459588875748
    Total Energy =                       -158.4045958887574841
    Molecular point group: c1
  Basis Set: 6-31G*
    Blend: 6-31G*
  Basis Set: (6-31G* AUX)
    Blend: CC-PVDZ-JKFIT
  Basis Set: 6-31G*
    Blend: 6-31G*
  Basis Set: (6-31G* AUX)
    Blend: CC-PVDZ-JKFIT
  @DF-RKS Final Energy:  -158.40695767233774
    Total Energy =                       -158.4069576723377395
  Basis Set: 6-31G*
    Blend: 6-31G*
  Basis Set: (6-31G* AUX)
    Blend: CC-PVDZ-JKFIT
  Charge       = 0
  Multiplicity = 1
  Basis Set: 6-31G*
    Blend: 6-31G*
  Basis Set: (6-31G* AUX)
    Blend: CC-PVDZ-JKFIT

    Orbital Energies [Eh]
    ---------------------

    Doubly Occupied:

       1A    -10.286122     2A    -10.285915     3A    -10.278780
       4A    -10.278776     5A     -0.888335     6A     -0.812773
       7A     -0.732116     8A     -0.653471     9A     -0.540204
      10A     -0.537508    11A     -0.497020    12A     -0.463764
      13A     -0.460435    14A     -0.435963    15A     -0.399641
      16A     -0.398626    17A     -0.395751

  @DF-RKS Final Energy:  -158.40700802116768

   => Energetics <=

    Nuclear Repulsion Energy =            132.3254026692869729
    One-Electron Energy =                -473.2242652687663735
    Two-Electron Energy =                 199.6447416160438593
    DFT Exchange-Correlation Energy =     -17.1461961066608737
    Empirical Dispersion Energy =          -0.0066909310712518
    VV10 Nonlocal Energy =                  0.0000000000000000
    Total Energy =                       -158.4070080211676839

  Dipole Moment: [D]
     X:    -0.0068      Y:     0.0302      Z:     0.0590     Total:     0.0667

    Molecular point group: c1
  Basis Set: 6-31G*
    Blend: 6-31G*
  Basis Set: (6-31G* AUX)
    Blend: CC-PVDZ-JKFIT

  -Total Gradient:
     Atom            X                  Y                   Z
    ------   -----------------  -----------------  -----------------
       1       -0.002343082194     0.002462515234    -0.001001354830
       2        0.002250848425    -0.002039212809     0.001831653228
       3        0.000263843423    -0.002265208608     0.000715296258
       4       -0.000181697122     0.001887699162    -0.001460685446
       5        0.000049765052    -0.000206777103     0.000028596366
       6       -0.000173283872     0.000173334946    -0.000161352462
       7       -0.000035150246     0.000140765623    -0.000158648486
       8        0.000182536321    -0.000215138183     0.000079349934
       9       -0.000077140877     0.001094414977    -0.000354409422
      10        0.000177298210    -0.000261836737     0.000130497105
      11        0.000043473757     0.000073637457    -0.000205089448
      12        0.000039283537    -0.000923764025     0.000693049874
      13       -0.000172946907     0.000242110548    -0.000168970094
      14       -0.000012163999    -0.000211992622    -0.000065702956

  **** Optimization is complete! (in 3 steps) ****
    Final optimized geometry and variables:
    Molecular point group: c1

    Geometry (in Angstrom), charge = 0, multiplicity = 1:

    C           -0.636450708126    -0.195277886272     0.728885200664
    C            0.510357497249     0.759137106231     0.371110006363
    C           -1.446673254222    -0.692876003458    -0.467548886602
    C            1.564706746474     0.165065265854    -0.562122609522
    H           -1.308338498155     0.307709822311     1.435146205939
    H           -0.223001869257    -1.060455990487     1.265147447921
    H            0.995162057585     1.092728053776     1.296808102043
    H            0.088735600868     1.660761836624    -0.094035370443
    H           -0.824270865363    -1.240289628517    -1.182026377349
    H           -1.901907611664     0.146111592969    -1.007013983961
    H           -2.252741090189    -1.360590475092    -0.147533966092
    H            1.133884707926    -0.144666960643    -1.519192906916
    H            2.030397432833    -0.719749108047    -0.112235901952
    H            2.358045824314     0.889217753463    -0.772395627170

*** Psi4 exiting successfully. Buy a developer a beer!
