                               Psi4 1.3.2 release

  ==> Input File <==

--------------------------------------------------------------------------
molecule {
0 1
 C   -0.714669   -0.083357    0.790603
 C    0.565577    0.750099    0.510094
 C   -1.371015   -0.807821   -0.390124
 C    1.487282    0.287884   -0.624225
 H   -1.469115    0.567096    1.290936
 H   -0.452538   -0.858825    1.547623
 H    1.154727    0.839094    1.452201
 H    0.244283    1.790282    0.269488
 H   -0.677032   -1.540375   -0.860075
 H   -1.691461   -0.084138   -1.172921
 H   -2.274368   -1.366856   -0.057201
 H    0.959376    0.276877   -1.604173
 H    1.875274   -0.737137   -0.429267
 H    2.363558    0.967452   -0.722350
}
set optking {
  frozen_dihedral = ("
    3 1 2 4
    2 1 3 9
    1 2 4 12
  ")
}
set {
  geom_maxiter 5
  g_convergence GAU_LOOSE
  dynamic_level 1
}
memory 700MB
set_num_threads(8)
psi4_io.set_default_path("/home/daniele/PSI4_sctatch/Psi4-butane")
for _ in range(1):
  try:
    set opt_coordinates both
    optimize('wb97x-d/6-31G*')
    break
  except OptimizationConvergenceError:
    break
  else:
    try:
      set opt_coordinates cartesian
      optimize('wb97x-d/6-31G*')
      break
    except OptimizationConvergenceError:
      pass
clean()
--------------------------------------------------------------------------

    Molecular point group: c1
  Charge       = 0
  Multiplicity = 1
  Basis Set: 6-31G*
    Blend: 6-31G*
  Basis Set: (6-31G* AUX)
    Blend: CC-PVDZ-JKFIT
  @DF-RKS Final Energy:  -158.40077996939181
    Total Energy =                       -158.4007799693917775
    Molecular point group: c1
  Basis Set: 6-31G*
    Blend: 6-31G*
  Basis Set: (6-31G* AUX)
    Blend: CC-PVDZ-JKFIT
  Basis Set: 6-31G*
    Blend: 6-31G*
  Basis Set: (6-31G* AUX)
    Blend: CC-PVDZ-JKFIT
  @DF-RKS Final Energy:  -158.40313128744734
    Total Energy =                       -158.4031312874473372
  Basis Set: 6-31G*
    Blend: 6-31G*
  Basis Set: (6-31G* AUX)
    Blend: CC-PVDZ-JKFIT
  Charge       = 0
  Multiplicity = 1
  Basis Set: 6-31G*
    Blend: 6-31G*
  Basis Set: (6-31G* AUX)
    Blend: CC-PVDZ-JKFIT

    Orbital Energies [Eh]
    ---------------------

    Doubly Occupied:

       1A    -10.285942     2A    -10.285754     3A    -10.278490
       4A    -10.278481     5A     -0.886412     6A     -0.811837
       7A     -0.735187     8A     -0.649345     9A     -0.545679
      10A     -0.534693    11A     -0.492219    12A     -0.468022
      13A     -0.456155    14A     -0.437893    15A     -0.403749
      16A     -0.399506    17A     -0.386851

  @DF-RKS Final Energy:  -158.40349024028703

   => Energetics <=

    Nuclear Repulsion Energy =            132.5817435894918503
    One-Electron Energy =                -473.7467860452040895
    Two-Electron Energy =                 199.9158093500280984
    DFT Exchange-Correlation Energy =     -17.1474842652173720
    Empirical Dispersion Energy =          -0.0067728693855274
    VV10 Nonlocal Energy =                  0.0000000000000000
    Total Energy =                       -158.4034902402870273

  Dipole Moment: [D]
     X:    -0.0065      Y:     0.0290      Z:     0.0565     Total:     0.0638

    Molecular point group: c1
  Basis Set: 6-31G*
    Blend: 6-31G*
  Basis Set: (6-31G* AUX)
    Blend: CC-PVDZ-JKFIT

  -Total Gradient:
     Atom            X                  Y                   Z
    ------   -----------------  -----------------  -----------------
       1       -0.005515990795     0.007556009037    -0.002309340838
       2        0.005121813926    -0.005790641395     0.005760176752
       3        0.001442816069    -0.005235448010     0.001010268726
       4       -0.001112891633     0.003759130859    -0.003898625238
       5        0.000505781985    -0.000693505496    -0.000193849421
       6       -0.000055371139     0.000529501162    -0.000624484766
       7       -0.000395919816     0.000205153603    -0.000758555565
       8        0.000117446671    -0.000807856010     0.000079609953
       9       -0.000491094757     0.001252614418    -0.000151038990
      10        0.000067556477    -0.000553156517     0.000567928120
      11        0.000463511653     0.000335207723    -0.000371199702
      12        0.000391416263    -0.000815431636     0.001010639148
      13       -0.000118328401     0.000776921315    -0.000133961922
      14       -0.000416549221    -0.000536276019    -0.000023080819

  **** Optimization is complete! (in 3 steps) ****
    Final optimized geometry and variables:
    Molecular point group: c1

    Geometry (in Angstrom), charge = 0, multiplicity = 1:

    C           -0.745631430372    -0.047638398605     0.714324075497
    C            0.606374341197     0.670742168127     0.500910428947
    C           -1.363470680967    -0.684414486735    -0.531422501828
    C            1.493887254174     0.100877131284    -0.606644409686
    H           -1.456540652223     0.651497158406     1.166063755141
    H           -0.602471731173    -0.846559871612     1.452951715043
    H            1.157140751212     0.688243351186     1.446743121879
    H            0.407045877827     1.720856081370     0.252167581094
    H           -0.706727883531    -1.443407339873    -0.963452730461
    H           -1.561335802805     0.060843419982    -1.310113383547
    H           -2.315493708208    -1.164517483539    -0.286836884857
    H            0.998032061141     0.139132081496    -1.579624897340
    H            1.759139346348    -0.944765968157    -0.413804877913
    H            2.426474250509     0.667568056848    -0.682914707853

*** Psi4 exiting successfully. Buy a developer a beer!
