                               Psi4 1.3.2 release

  ==> Input File <==

--------------------------------------------------------------------------
molecule {
0 1
 C   -0.768419   -0.002390    0.763177
 C    0.615677    0.685442    0.569249
 C   -1.282779   -0.937133   -0.337749
 C    1.403335    0.397900   -0.714183
 H   -1.534390    0.790620    0.928855
 H   -0.743273   -0.575642    1.718960
 H    1.263023    0.422740    1.438141
 H    0.472140    1.788253    0.646500
 H   -0.588364   -1.791478   -0.501326
 H   -1.404811   -0.397020   -1.303345
 H   -2.274801   -1.360993   -0.062767
 H    0.831244    0.704647   -1.618310
 H    1.646800   -0.684344   -0.806020
 H    2.364496    0.959673   -0.720572
}
set optking {
  frozen_dihedral = ("
    3 1 2 4
    2 1 3 9
    1 2 4 12
  ")
}
set {
  geom_maxiter 5
  g_convergence GAU_LOOSE
  dynamic_level 1
}
memory 700MB
set_num_threads(8)
psi4_io.set_default_path("/home/daniele/PSI4_sctatch/Psi4-butane")
for _ in range(1):
  try:
    set opt_coordinates both
    optimize('wb97x-d/6-31G*')
    break
  except OptimizationConvergenceError:
    break
  else:
    try:
      set opt_coordinates cartesian
      optimize('wb97x-d/6-31G*')
      break
    except OptimizationConvergenceError:
      pass
clean()
--------------------------------------------------------------------------

    Molecular point group: c1
  Charge       = 0
  Multiplicity = 1
  Basis Set: 6-31G*
    Blend: 6-31G*
  Basis Set: (6-31G* AUX)
    Blend: CC-PVDZ-JKFIT
  @DF-RKS Final Energy:  -158.39697107348164
    Total Energy =                       -158.3969710734816374
    Molecular point group: c1
  Basis Set: 6-31G*
    Blend: 6-31G*
  Basis Set: (6-31G* AUX)
    Blend: CC-PVDZ-JKFIT
  Basis Set: 6-31G*
    Blend: 6-31G*
  Basis Set: (6-31G* AUX)
    Blend: CC-PVDZ-JKFIT
  @DF-RKS Final Energy:  -158.39911891765883
    Total Energy =                       -158.3991189176588534
  Basis Set: 6-31G*
    Blend: 6-31G*
  Basis Set: (6-31G* AUX)
    Blend: CC-PVDZ-JKFIT
  Charge       = 0
  Multiplicity = 1
  Basis Set: 6-31G*
    Blend: 6-31G*
  Basis Set: (6-31G* AUX)
    Blend: CC-PVDZ-JKFIT

    Orbital Energies [Eh]
    ---------------------

    Doubly Occupied:

       1A    -10.285850     2A    -10.285679     3A    -10.278277
       4A    -10.278261     5A     -0.884017     6A     -0.812177
       7A     -0.735055     8A     -0.647825     9A     -0.548384
      10A     -0.531639    11A     -0.488597    12A     -0.468804
      13A     -0.454470    14A     -0.442702    15A     -0.403007
      16A     -0.398003    17A     -0.383348

  @DF-RKS Final Energy:  -158.39957277995066

   => Energetics <=

    Nuclear Repulsion Energy =            132.3013061517601443
    One-Electron Energy =                -473.1989405850089270
    Two-Electron Energy =                 199.6513837262340303
    DFT Exchange-Correlation Energy =     -17.1466097314051034
    Empirical Dispersion Energy =          -0.0067123415308233
    VV10 Nonlocal Energy =                  0.0000000000000000
    Total Energy =                       -158.3995727799506597

  Dipole Moment: [D]
     X:    -0.0147      Y:     0.0296      Z:     0.0726     Total:     0.0798

    Molecular point group: c1
  Basis Set: 6-31G*
    Blend: 6-31G*
  Basis Set: (6-31G* AUX)
    Blend: CC-PVDZ-JKFIT

  -Total Gradient:
     Atom            X                  Y                   Z
    ------   -----------------  -----------------  -----------------
       1       -0.000696190477    -0.000159474396     0.000322951599
       2        0.000815223276     0.000061650433     0.000750266547
       3       -0.000754423603    -0.000374485710    -0.000548681829
       4        0.000681585306     0.000457190232    -0.000676993670
       5        0.000358703623    -0.000639750934    -0.000241392842
       6       -0.000201707272     0.000301951412    -0.000557973159
       7       -0.000173259305     0.000350748643    -0.000607192794
       8        0.000344500783    -0.000583577653    -0.000314694549
       9       -0.000683636983     0.000589372463     0.000228045419
      10       -0.000010687296    -0.000556732775     0.000706701987
      11        0.000636367959     0.000239716239    -0.000029303228
      12        0.000498361165    -0.000205064358     0.000604167423
      13       -0.000190183941     0.000892900349     0.000279202096
      14       -0.000618077743    -0.000393954229     0.000036969842

  **** Optimization is complete! (in 3 steps) ****
    Final optimized geometry and variables:
    Molecular point group: c1

    Geometry (in Angstrom), charge = 0, multiplicity = 1:

    C           -0.793834024155    -0.145502000258     0.671907989465
    C            0.533378317915     0.665700794026     0.612784273863
    C           -1.127992676233    -1.008509879049    -0.547396260962
    C            1.372611390085     0.519896411212    -0.659148136512
    H           -1.628026346464     0.544962726927     0.835869702465
    H           -0.776104495036    -0.796168745886     1.552865959105
    H            1.161058795426     0.390244052457     1.466974562601
    H            0.307588663056     1.729080403688     0.746875876429
    H           -0.359447292110    -1.763756643399    -0.734708865954
    H           -1.234161857356    -0.409189025514    -1.456059919253
    H           -2.073635226923    -1.534961786834    -0.386933707948
    H            0.823829489352     0.838331814403    -1.550088953847
    H            1.695237406453    -0.512987894026    -0.817849611460
    H            2.272229218799     1.138364033465    -0.587438292711

*** Psi4 exiting successfully. Buy a developer a beer!
