                               Psi4 1.3.2 release

  ==> Input File <==

--------------------------------------------------------------------------
molecule {
0 1
 C   -0.147653   -1.012247   -0.368417
 C    0.380756    0.453163   -0.911535
 C   -0.912895   -0.922608    0.963242
 C    0.696661    1.441050    0.223953
 H    0.750121   -1.697437   -0.191243
 H   -0.835737   -1.455360   -1.116438
 H   -0.431431    0.934977   -1.557518
 H    1.312367    0.317377   -1.497302
 H   -1.831269   -0.258257    0.870340
 H   -0.234523   -0.537641    1.752925
 H   -1.270644   -1.950461    1.313655
 H    1.507115    1.036784    0.913357
 H   -0.230134    1.648478    0.798195
 H    1.063274    2.445446   -0.181521
}
set optking {
  frozen_dihedral = ("
    3 1 2 4
    2 1 3 9
    1 2 4 12
  ")
}
set {
  geom_maxiter 5
  g_convergence GAU_LOOSE
  dynamic_level 1
}
memory 700MB
set_num_threads(8)
psi4_io.set_default_path("/home/daniele/PSI4_sctatch/Psi4-butane")
for _ in range(1):
  try:
    set opt_coordinates both
    optimize('wb97x-d/6-31G*')
    break
  except OptimizationConvergenceError:
    break
  else:
    try:
      set opt_coordinates cartesian
      optimize('wb97x-d/6-31G*')
      break
    except OptimizationConvergenceError:
      pass
clean()
--------------------------------------------------------------------------

    Molecular point group: c1
  Charge       = 0
  Multiplicity = 1
  Basis Set: 6-31G*
    Blend: 6-31G*
  Basis Set: (6-31G* AUX)
    Blend: CC-PVDZ-JKFIT
  @DF-RKS Final Energy:  -158.38886152987894
    Total Energy =                       -158.3888615298789375
    Molecular point group: c1
  Basis Set: 6-31G*
    Blend: 6-31G*
  Basis Set: (6-31G* AUX)
    Blend: CC-PVDZ-JKFIT
  Basis Set: 6-31G*
    Blend: 6-31G*
  Basis Set: (6-31G* AUX)
    Blend: CC-PVDZ-JKFIT
  @DF-RKS Final Energy:  -158.40294968031120
    Total Energy =                       -158.4029496803111670
  Basis Set: 6-31G*
    Blend: 6-31G*
  Basis Set: (6-31G* AUX)
    Blend: CC-PVDZ-JKFIT
  Basis Set: 6-31G*
    Blend: 6-31G*
  Basis Set: (6-31G* AUX)
    Blend: CC-PVDZ-JKFIT
  @DF-RKS Final Energy:  -158.40344980224015
    Total Energy =                       -158.4034498022401465
  Basis Set: 6-31G*
    Blend: 6-31G*
  Basis Set: (6-31G* AUX)
    Blend: CC-PVDZ-JKFIT
  Charge       = 0
  Multiplicity = 1
  Basis Set: 6-31G*
    Blend: 6-31G*
  Basis Set: (6-31G* AUX)
    Blend: CC-PVDZ-JKFIT

    Orbital Energies [Eh]
    ---------------------

    Doubly Occupied:

       1A    -10.285902     2A    -10.285711     3A    -10.278786
       4A    -10.278777     5A     -0.887041     6A     -0.811436
       7A     -0.734979     8A     -0.648694     9A     -0.546033
      10A     -0.534908    11A     -0.492201    12A     -0.468135
      13A     -0.454965    14A     -0.438444    15A     -0.403355
      16A     -0.399192    17A     -0.386985

  @DF-RKS Final Energy:  -158.40354768700462

   => Energetics <=

    Nuclear Repulsion Energy =            132.7155058133748753
    One-Electron Energy =                -474.0168931501204383
    Two-Electron Energy =                 200.0504351842205608
    DFT Exchange-Correlation Energy =     -17.1458057128077179
    Empirical Dispersion Energy =          -0.0067898216719283
    VV10 Nonlocal Energy =                  0.0000000000000000
    Total Energy =                       -158.4035476870046466

  Dipole Moment: [D]
     X:     0.0105      Y:    -0.0261      Z:    -0.0604     Total:     0.0666

    Molecular point group: c1
  Basis Set: 6-31G*
    Blend: 6-31G*
  Basis Set: (6-31G* AUX)
    Blend: CC-PVDZ-JKFIT

  -Total Gradient:
     Atom            X                  Y                   Z
    ------   -----------------  -----------------  -----------------
       1       -0.007338727519     0.002366298913    -0.003052766517
       2        0.007570116115    -0.002868344332     0.001814356150
       3        0.004057113859    -0.000231153759     0.002017012697
       4       -0.004407810235     0.001066103202    -0.000024721137
       5       -0.000075198925    -0.000101026695    -0.000080548763
       6        0.000087482474    -0.000053729451    -0.000020120997
       7        0.000094381040     0.000021724141    -0.000099114981
       8       -0.000065015681     0.000010689082    -0.000071148080
       9       -0.000283111317    -0.000280846991    -0.000161791814
      10        0.000064723376     0.000234783491    -0.000022025628
      11       -0.000029840652    -0.000107273083    -0.000041189964
      12        0.000353502570     0.000106306881    -0.000215621342
      13       -0.000087557160    -0.000184064729     0.000130268742
      14        0.000049651983     0.000046547841    -0.000111828679

  **** Optimization is complete! (in 4 steps) ****
    Final optimized geometry and variables:
    Molecular point group: c1

    Geometry (in Angstrom), charge = 0, multiplicity = 1:

    C           -0.162100517260    -0.948227942908    -0.376629931286
    C            0.379331746700     0.409302357356    -0.869440608008
    C           -0.938042891795    -0.907781481792     0.939717363874
    C            0.734548559940     1.412644398169     0.227589960435
    H            0.683217724846    -1.636473522252    -0.240112160883
    H           -0.784276465555    -1.393852504651    -1.161312738841
    H           -0.377679109781     0.878309876356    -1.512765007718
    H            1.250383636913     0.237448086028    -1.512204992237
    H           -1.816787965959    -0.254564187567     0.873424267745
    H           -0.313878480757    -0.547090414679     1.763129394591
    H           -1.292812072656    -1.909488875922     1.204841760319
    H            1.507170648719     1.021735071352     0.901050333879
    H           -0.139058469820     1.670943077997     0.834040378277
    H            1.120157667885     2.338611759648    -0.212271127880

*** Psi4 exiting successfully. Buy a developer a beer!
