                               Psi4 1.3.2 release

  ==> Input File <==

--------------------------------------------------------------------------
molecule {
0 1
 C   -0.569822   -0.294505    0.667096
 C    0.465377    0.761720    0.244263
 C   -1.599875   -0.599150   -0.420251
 C    1.697609    0.161971   -0.432526
 H   -1.104859    0.056233    1.558271
 H   -0.053853   -1.216110    0.964947
 H    0.797003    1.320873    1.127917
 H   -0.008610    1.495482   -0.419985
 H   -1.121764   -0.979867   -1.330307
 H   -2.157490    0.304403   -0.689830
 H   -2.321112   -1.353162   -0.088130
 H    1.427849   -0.389717   -1.340605
 H    2.209098   -0.534436    0.240832
 H    2.413666    0.938679   -0.720633
}
memory 700MB
set_num_threads(8)
psi4_io.set_default_path("/home/daniele/PSI4_sctatch/Psi4-butane")
set freeze_core True
E, wfn = energy('wb97x-d/6-311+G*',return_wfn=True)
oeprop(wfn,"WIBERG_LOWDIN_INDICES")
clean()
--------------------------------------------------------------------------

    Molecular point group: c1

    Geometry (in Angstrom), charge = 0, multiplicity = 1:

       Center              X                  Y                   Z               Mass
    ------------   -----------------  -----------------  -----------------  -----------------
         C           -0.569822369143    -0.294505199667     0.667095950755    12.000000000000
         C            0.465376630857     0.761719800333     0.244262950755    12.000000000000
         C           -1.599875369143    -0.599150199667    -0.420251049245    12.000000000000
         C            1.697608630857     0.161970800333    -0.432526049245    12.000000000000
         H           -1.104859369143     0.056232800333     1.558270950755     1.007825032230
         H           -0.053853369143    -1.216110199667     0.964946950755     1.007825032230
         H            0.797002630857     1.320872800333     1.127916950755     1.007825032230
         H           -0.008610369143     1.495481800333    -0.419985049245     1.007825032230
         H           -1.121764369143    -0.979867199667    -1.330307049245     1.007825032230
         H           -2.157490369143     0.304402800333    -0.689830049245     1.007825032230
         H           -2.321112369143    -1.353162199667    -0.088130049245     1.007825032230
         H            1.427848630857    -0.389717199667    -1.340605049245     1.007825032230
         H            2.209097630857    -0.534436199667     0.240831950755     1.007825032230
         H            2.413665630857     0.938678800333    -0.720633049245     1.007825032230

  Charge       = 0
  Multiplicity = 1
  Basis Set: 6-311+G*
    Blend: 6-311+G*
  Basis Set: (6-311+G* AUX)
    Blend: HEAVY-AUG-CC-PVTZ-JKFIT

    Orbital Energies [Eh]
    ---------------------

    Doubly Occupied:

       1A    -10.273902     2A    -10.273704     3A    -10.266635
       4A    -10.266632     5A     -0.893817     6A     -0.819771
       7A     -0.731053     8A     -0.664333     9A     -0.546016
      10A     -0.538444    11A     -0.506246    12A     -0.472453
      13A     -0.458094    14A     -0.444725    15A     -0.410688
      16A     -0.401952    17A     -0.398056

  @DF-RKS Final Energy:  -158.43515666420191

   => Energetics <=

    Nuclear Repulsion Energy =            131.6246813300580527
    One-Electron Energy =                -471.8179994357532223
    Two-Electron Energy =                 198.9352677673095400
    DFT Exchange-Correlation Energy =     -17.1705888080405700
    Empirical Dispersion Energy =          -0.0065175177756678
    VV10 Nonlocal Energy =                  0.0000000000000000
    Total Energy =                       -158.4351566642019122

  Dipole Moment: [D]
     X:    -0.0115      Y:     0.0515      Z:     0.1005     Total:     0.1135

*** Psi4 exiting successfully. Buy a developer a beer!
