                               Psi4 1.3.2 release

  ==> Input File <==

--------------------------------------------------------------------------
molecule {
0 1
 C   -0.441096   -0.575313    0.244224
 C    0.441094    0.575336   -0.244175
 C   -1.925694   -0.354729   -0.038847
 C    1.925695    0.354710    0.038805
 H   -0.289698   -0.712857    1.323326
 H   -0.111708   -1.509081   -0.231026
 H    0.111683    1.509113    0.231062
 H    0.289706    0.712868   -1.323273
 H   -2.109540   -0.249010   -1.114080
 H   -2.287932    0.557013    0.449663
 H   -2.531576   -1.191763    0.323487
 H    2.289060   -0.554372   -0.453781
 H    2.108930    0.244033    1.113657
 H    2.531088    1.193995   -0.319113
}
memory 700MB
set_num_threads(8)
psi4_io.set_default_path("/home/daniele/PSI4_sctatch/Psi4-butane")
set freeze_core True
E, wfn = energy('wb97x-d/6-311+G*',return_wfn=True)
oeprop(wfn,"WIBERG_LOWDIN_INDICES")
clean()
--------------------------------------------------------------------------

    Molecular point group: c1

    Geometry (in Angstrom), charge = 0, multiplicity = 1:

       Center              X                  Y                   Z               Mass
    ------------   -----------------  -----------------  -----------------  -----------------
         C           -0.441096018970    -0.575312767945     0.244223907200    12.000000000000
         C            0.441093981030     0.575336232055    -0.244175092800    12.000000000000
         C           -1.925694018970    -0.354728767945    -0.038847092800    12.000000000000
         C            1.925694981030     0.354710232055     0.038804907200    12.000000000000
         H           -0.289698018970    -0.712856767945     1.323325907200     1.007825032230
         H           -0.111708018970    -1.509080767945    -0.231026092800     1.007825032230
         H            0.111682981030     1.509113232055     0.231061907200     1.007825032230
         H            0.289705981030     0.712868232055    -1.323273092800     1.007825032230
         H           -2.109540018970    -0.249009767945    -1.114080092800     1.007825032230
         H           -2.287932018970     0.557013232055     0.449662907200     1.007825032230
         H           -2.531576018970    -1.191762767945     0.323486907200     1.007825032230
         H            2.289059981030    -0.554371767945    -0.453781092800     1.007825032230
         H            2.108929981030     0.244033232055     1.113656907200     1.007825032230
         H            2.531087981030     1.193995232055    -0.319113092800     1.007825032230

  Charge       = 0
  Multiplicity = 1
  Basis Set: 6-311+G*
    Blend: 6-311+G*
  Basis Set: (6-311+G* AUX)
    Blend: HEAVY-AUG-CC-PVTZ-JKFIT

    Orbital Energies [Eh]
    ---------------------

    Doubly Occupied:

       1A    -10.274120     2A    -10.273912     3A    -10.266772
       4A    -10.266766     5A     -0.894599     6A     -0.822286
       7A     -0.725267     8A     -0.669457     9A     -0.558153
      10A     -0.513174    11A     -0.505826    12A     -0.497003
      13A     -0.451587    14A     -0.432590    15A     -0.414919
      16A     -0.402895    17A     -0.402892

  @DF-RKS Final Energy:  -158.43768009196503

   => Energetics <=

    Nuclear Repulsion Energy =            130.4754417088092282
    One-Electron Energy =                -469.5141388539953482
    Two-Electron Energy =                 197.7776889540401442
    DFT Exchange-Correlation Energy =     -17.1703720043638235
    Empirical Dispersion Energy =          -0.0062998964552253
    VV10 Nonlocal Energy =                  0.0000000000000000
    Total Energy =                       -158.4376800919650350

  Dipole Moment: [D]
     X:     0.0000      Y:    -0.0000      Z:    -0.0001     Total:     0.0001

*** Psi4 exiting successfully. Buy a developer a beer!
