                               Psi4 1.3.2 release

  ==> Input File <==

--------------------------------------------------------------------------
molecule {
0 1
 C   -0.535533   -0.378665    0.571968
 C    0.456648    0.731551    0.116750
 C   -1.801449   -0.523832   -0.279623
 C    1.862826    0.249348   -0.256153
 H   -0.839707   -0.176871    1.625162
 H   -0.015480   -1.363444    0.603211
 H    0.546874    1.486882    0.931484
 H    0.032316    1.288163   -0.750032
 H   -1.549393   -0.768078   -1.336130
 H   -2.399371    0.415379   -0.275022
 H   -2.449804   -1.340084    0.111432
 H    1.828051   -0.479089   -1.097264
 H    2.361279   -0.244339    0.608465
 H    2.502622    1.103352   -0.573640
}
set optking {
  frozen_dihedral = ("
    3 1 2 4
    2 1 3 9
    1 2 4 12
  ")
}
set {
  geom_maxiter 5
  g_convergence GAU_LOOSE
  dynamic_level 1
}
memory 700MB
set_num_threads(8)
psi4_io.set_default_path("/home/daniele/PSI4_sctatch/Psi4-butane")
for _ in range(1):
  try:
    set opt_coordinates both
    optimize('wb97x-d/6-31G*')
    break
  except OptimizationConvergenceError:
    break
  else:
    try:
      set opt_coordinates cartesian
      optimize('wb97x-d/6-31G*')
      break
    except OptimizationConvergenceError:
      pass
clean()
--------------------------------------------------------------------------

    Molecular point group: c1
  Charge       = 0
  Multiplicity = 1
  Basis Set: 6-31G*
    Blend: 6-31G*
  Basis Set: (6-31G* AUX)
    Blend: CC-PVDZ-JKFIT
  @DF-RKS Final Energy:  -158.40013432154402
    Total Energy =                       -158.4001343215439874
    Molecular point group: c1
  Basis Set: 6-31G*
    Blend: 6-31G*
  Basis Set: (6-31G* AUX)
    Blend: CC-PVDZ-JKFIT
  Basis Set: 6-31G*
    Blend: 6-31G*
  Basis Set: (6-31G* AUX)
    Blend: CC-PVDZ-JKFIT
  @DF-RKS Final Energy:  -158.40257083274614
    Total Energy =                       -158.4025708327461359
  Basis Set: 6-31G*
    Blend: 6-31G*
  Basis Set: (6-31G* AUX)
    Blend: CC-PVDZ-JKFIT
  Charge       = 0
  Multiplicity = 1
  Basis Set: 6-31G*
    Blend: 6-31G*
  Basis Set: (6-31G* AUX)
    Blend: CC-PVDZ-JKFIT

    Orbital Energies [Eh]
    ---------------------

    Doubly Occupied:

       1A    -10.285433     2A    -10.285246     3A    -10.279375
       4A    -10.279372     5A     -0.886323     6A     -0.816085
       7A     -0.721506     8A     -0.663484     9A     -0.544627
      10A     -0.518830    11A     -0.503720    12A     -0.477468
      13A     -0.441821    14A     -0.441495    15A     -0.404245
      16A     -0.395266    17A     -0.392898

  @DF-RKS Final Energy:  -158.40262365150306

   => Energetics <=

    Nuclear Repulsion Energy =            130.7086156583265222
    One-Electron Energy =                -469.9999459697136217
    Two-Electron Energy =                 198.0390650512394188
    DFT Exchange-Correlation Energy =     -17.1440845773667654
    Empirical Dispersion Energy =          -0.0062738139886071
    VV10 Nonlocal Energy =                  0.0000000000000000
    Total Energy =                       -158.4026236515030632

  Dipole Moment: [D]
     X:    -0.0062      Y:     0.0276      Z:     0.0540     Total:     0.0610

    Molecular point group: c1
  Basis Set: 6-31G*
    Blend: 6-31G*
  Basis Set: (6-31G* AUX)
    Blend: CC-PVDZ-JKFIT

  -Total Gradient:
     Atom            X                  Y                   Z
    ------   -----------------  -----------------  -----------------
       1       -0.000328058171     0.000271846997    -0.000101135041
       2        0.000313378366    -0.000206460020     0.000230967265
       3        0.000216964594     0.000027467940     0.000077708104
       4       -0.000227074508     0.000030516986     0.000018816438
       5       -0.000071328403    -0.000246587437    -0.000051838269
       6       -0.000143336878     0.000086229363     0.000048907979
       7        0.000102732145     0.000109984633    -0.000214755682
       8        0.000123732977     0.000000603654     0.000122497847
       9       -0.000152877612    -0.000188849532     0.000209469537
      10        0.000137089461    -0.000218577050    -0.000044664579
      11       -0.000005933017     0.000023231763    -0.000021412740
      12        0.000128469837     0.000288880685    -0.000002241894
      13       -0.000107179738     0.000081058707    -0.000224685541
      14        0.000008490034    -0.000031393813     0.000007064571

  **** Optimization is complete! (in 3 steps) ****
    Final optimized geometry and variables:
    Molecular point group: c1

    Geometry (in Angstrom), charge = 0, multiplicity = 1:

    C           -0.517401150204    -0.394478435477     0.553526408044
    C            0.443672712341     0.724383070794     0.090308069329
    C           -1.766412931986    -0.519065362428    -0.318370554525
    C            1.835005044583     0.212157767350    -0.280598583753
    H           -0.820824401291    -0.226344205575     1.593390339682
    H            0.013290622100    -1.355295898133     0.550389480636
    H            0.538687453597     1.488732377121     0.870302824535
    H            0.012846686914     1.238337260898    -0.778629336348
    H           -1.497153506433    -0.743788948174    -1.356848138970
    H           -2.340098425447     0.414499456070    -0.319318538792
    H           -2.426731042462    -1.317780405399     0.036130330222
    H            1.778358248163    -0.514907744223    -1.098892385022
    H            2.311259288421    -0.284834281713     0.571951846529
    H            2.491522421434     1.027560570802    -0.602680328820

*** Psi4 exiting successfully. Buy a developer a beer!
