                               Psi4 1.3.2 release

  ==> Input File <==

--------------------------------------------------------------------------
molecule {
0 1
 C   -0.462221   -0.573272    0.240581
 C    0.462294    0.573163   -0.240810
 C   -1.953812   -0.360487   -0.039291
 C    1.953764    0.360274    0.038990
 H   -0.322533   -0.717574    1.336752
 H   -0.141759   -1.525780   -0.241090
 H    0.141866    1.525721    0.240838
 H    0.322480    0.717436   -1.337000
 H   -2.148218   -0.254397   -1.130405
 H   -2.331363    0.556373    0.467064
 H   -2.553094   -1.222591    0.330557
 H    2.330323   -0.560791   -0.460377
 H    2.148384    0.262414    1.130845
 H    2.553765    1.219785   -0.336046
}
set optking {
  frozen_dihedral = ("
    3 1 2 4
    2 1 3 9
    1 2 4 12
  ")
}
set {
  geom_maxiter 5
  g_convergence GAU_LOOSE
  dynamic_level 1
}
memory 700MB
set_num_threads(8)
psi4_io.set_default_path("/home/daniele/PSI4_sctatch/Psi4-butane")
for _ in range(1):
  try:
    set opt_coordinates both
    optimize('wb97x-d/6-31G*')
    break
  except OptimizationConvergenceError:
    break
  else:
    try:
      set opt_coordinates cartesian
      optimize('wb97x-d/6-31G*')
      break
    except OptimizationConvergenceError:
      pass
clean()
--------------------------------------------------------------------------

    Molecular point group: c1
  Charge       = 0
  Multiplicity = 1
  Basis Set: 6-31G*
    Blend: 6-31G*
  Basis Set: (6-31G* AUX)
    Blend: CC-PVDZ-JKFIT
  @DF-RKS Final Energy:  -158.40544921348140
    Total Energy =                       -158.4054492134813756
    Molecular point group: c1
  Basis Set: 6-31G*
    Blend: 6-31G*
  Basis Set: (6-31G* AUX)
    Blend: CC-PVDZ-JKFIT
  Basis Set: 6-31G*
    Blend: 6-31G*
  Basis Set: (6-31G* AUX)
    Blend: CC-PVDZ-JKFIT
  @DF-RKS Final Energy:  -158.40780947070226
    Total Energy =                       -158.4078094707022615
  Basis Set: 6-31G*
    Blend: 6-31G*
  Basis Set: (6-31G* AUX)
    Blend: CC-PVDZ-JKFIT
  Charge       = 0
  Multiplicity = 1
  Basis Set: 6-31G*
    Blend: 6-31G*
  Basis Set: (6-31G* AUX)
    Blend: CC-PVDZ-JKFIT

    Orbital Energies [Eh]
    ---------------------

    Doubly Occupied:

       1A    -10.285842     2A    -10.285630     3A    -10.279294
       4A    -10.279292     5A     -0.888727     6A     -0.816942
       7A     -0.720354     8A     -0.664519     9A     -0.552195
      10A     -0.507465    11A     -0.499831    12A     -0.491593
      13A     -0.446357    14A     -0.427578    15A     -0.408770
      16A     -0.397761    17A     -0.396806

  @DF-RKS Final Energy:  -158.40784544303179

   => Energetics <=

    Nuclear Repulsion Energy =            130.4754393335104226
    One-Electron Energy =                -469.5201439491094106
    Two-Electron Energy =                 197.7882697330358610
    DFT Exchange-Correlation Energy =     -17.1451106635814270
    Empirical Dispersion Energy =          -0.0062998968872168
    VV10 Nonlocal Energy =                  0.0000000000000000
    Total Energy =                       -158.4078454430317890

  Dipole Moment: [D]
     X:     0.0000      Y:    -0.0001      Z:    -0.0002     Total:     0.0002

    Molecular point group: c1
  Basis Set: 6-31G*
    Blend: 6-31G*
  Basis Set: (6-31G* AUX)
    Blend: CC-PVDZ-JKFIT

  -Total Gradient:
     Atom            X                  Y                   Z
    ------   -----------------  -----------------  -----------------
       1       -0.000321226935     0.000185889556    -0.000132565031
       2        0.000324571522    -0.000185563333     0.000136629695
       3        0.000051241466    -0.000132687295     0.000072132619
       4       -0.000055979685     0.000133438395    -0.000078486576
       5       -0.000059378609    -0.000090657654    -0.000117558628
       6       -0.000089032401     0.000051392279     0.000114551142
       7        0.000087214559    -0.000035658792    -0.000129052941
       8        0.000061447126     0.000070145706     0.000122474203
       9       -0.000010889000    -0.000020099451     0.000226232766
      10        0.000026031651    -0.000184370823    -0.000126497220
      11       -0.000047832804     0.000026896000    -0.000013562554
      12       -0.000027737603     0.000193523723     0.000115859001
      13        0.000014836920     0.000004827599    -0.000224376721
      14        0.000048015582    -0.000022721025     0.000023180125

  **** Optimization is complete! (in 3 steps) ****
    Final optimized geometry and variables:
    Molecular point group: c1

    Geometry (in Angstrom), charge = 0, multiplicity = 1:

    C           -0.441096339751    -0.575312561256     0.244224007370
    C            0.441094174449     0.575336125152    -0.244175404041
    C           -1.925694060352    -0.354728560250    -0.038846781052
    C            1.925695152175     0.354710146148     0.038804651853
    H           -0.289697947724    -0.712856643488     1.323326477192
    H           -0.111708010053    -1.509080983344    -0.231026247985
    H            0.111682834412     1.509112605902     0.231062346955
    H            0.289706492136     0.712867868452    -1.323272759165
    H           -2.109539854435    -0.249010243619    -1.114080437970
    H           -2.287932200161     0.557012682426     0.449662880632
    H           -2.531576146952    -1.191762608571     0.323487001476
    H            2.289059757644    -0.554372302203    -0.453780767655
    H            2.108929915268     0.244032872014     1.113657283182
    H            2.531087941600     1.193995434719    -0.319112863018

*** Psi4 exiting successfully. Buy a developer a beer!
