                               Psi4 1.3.2 release

  ==> Input File <==

--------------------------------------------------------------------------
molecule {
0 1
 C   -0.745631   -0.047638    0.714324
 C    0.606374    0.670742    0.500910
 C   -1.363471   -0.684414   -0.531423
 C    1.493887    0.100877   -0.606644
 H   -1.456541    0.651497    1.166064
 H   -0.602472   -0.846560    1.452952
 H    1.157141    0.688243    1.446743
 H    0.407046    1.720856    0.252168
 H   -0.706728   -1.443407   -0.963453
 H   -1.561336    0.060843   -1.310113
 H   -2.315494   -1.164517   -0.286837
 H    0.998032    0.139132   -1.579625
 H    1.759139   -0.944766   -0.413805
 H    2.426474    0.667568   -0.682915
}
memory 700MB
set_num_threads(8)
psi4_io.set_default_path("/home/daniele/PSI4_sctatch/Psi4-butane")
set freeze_core True
E, wfn = energy('wb97x-d/6-311+G*',return_wfn=True)
oeprop(wfn,"WIBERG_LOWDIN_INDICES")
clean()
--------------------------------------------------------------------------

    Molecular point group: c1

    Geometry (in Angstrom), charge = 0, multiplicity = 1:

       Center              X                  Y                   Z               Mass
    ------------   -----------------  -----------------  -----------------  -----------------
         C           -0.745630873803    -0.047638112628     0.714324117151    12.000000000000
         C            0.606374126197     0.670741887372     0.500910117151    12.000000000000
         C           -1.363470873803    -0.684414112628    -0.531422882849    12.000000000000
         C            1.493887126197     0.100876887372    -0.606643882849    12.000000000000
         H           -1.456540873803     0.651496887372     1.166064117151     1.007825032230
         H           -0.602471873803    -0.846560112628     1.452952117151     1.007825032230
         H            1.157141126197     0.688242887372     1.446743117151     1.007825032230
         H            0.407046126197     1.720855887372     0.252168117151     1.007825032230
         H           -0.706727873803    -1.443407112628    -0.963452882849     1.007825032230
         H           -1.561335873803     0.060842887372    -1.310112882849     1.007825032230
         H           -2.315493873803    -1.164517112628    -0.286836882849     1.007825032230
         H            0.998032126197     0.139131887372    -1.579624882849     1.007825032230
         H            1.759139126197    -0.944766112628    -0.413804882849     1.007825032230
         H            2.426474126197     0.667567887372    -0.682914882849     1.007825032230

  Charge       = 0
  Multiplicity = 1
  Basis Set: 6-311+G*
    Blend: 6-311+G*
  Basis Set: (6-311+G* AUX)
    Blend: HEAVY-AUG-CC-PVTZ-JKFIT

    Orbital Energies [Eh]
    ---------------------

    Doubly Occupied:

       1A    -10.273963     2A    -10.273777     3A    -10.265829
       4A    -10.265818     5A     -0.892175     6A     -0.817115
       7A     -0.740089     8A     -0.654024     9A     -0.551509
      10A     -0.540608    11A     -0.497638    12A     -0.473959
      13A     -0.461376    14A     -0.443081    15A     -0.409472
      16A     -0.405391    17A     -0.391916

  @DF-RKS Final Energy:  -158.43343815235292

   => Energetics <=

    Nuclear Repulsion Energy =            132.5817547245248136
    One-Electron Energy =                -473.7440951780779415
    Two-Electron Energy =                 199.9088848025095899
    DFT Exchange-Correlation Energy =     -17.1732096326608854
    Empirical Dispersion Energy =          -0.0067728686484664
    VV10 Nonlocal Energy =                  0.0000000000000000
    Total Energy =                       -158.4334381523528918

  Dipole Moment: [D]
     X:    -0.0094      Y:     0.0419      Z:     0.0817     Total:     0.0923

*** Psi4 exiting successfully. Buy a developer a beer!
