                               Psi4 1.3.2 release

  ==> Input File <==

--------------------------------------------------------------------------
molecule {
0 1
 C   -0.462201   -0.764145   -0.242924
 C    0.566634    0.296910   -0.668826
 C   -1.695443   -0.169902    0.436895
 C    1.597754    0.606973    0.415990
 H    0.017082   -1.495518    0.420193
 H   -0.793389   -1.325050   -1.125596
 H    0.045444    1.215813   -0.966014
 H    1.101133   -0.051784   -1.561090
 H   -2.211071    0.523781   -0.236267
 H   -1.423873    0.389636    1.339698
 H   -2.406774   -0.948294    0.731392
 H    2.159656   -0.294534    0.683883
 H    1.118173    0.978323    1.329218
 H    2.313327    1.366796    0.085482
}
memory 700MB
set_num_threads(8)
psi4_io.set_default_path("/home/daniele/PSI4_sctatch/Psi4-butane")
set freeze_core True
E, wfn = energy('wb97x-d/6-311+G*',return_wfn=True)
oeprop(wfn,"WIBERG_LOWDIN_INDICES")
clean()
--------------------------------------------------------------------------

    Molecular point group: c1

    Geometry (in Angstrom), charge = 0, multiplicity = 1:

       Center              X                  Y                   Z               Mass
    ------------   -----------------  -----------------  -----------------  -----------------
         C           -0.462201132795    -0.764145198164    -0.242924061250    12.000000000000
         C            0.566633867205     0.296909801836    -0.668826061250    12.000000000000
         C           -1.695443132795    -0.169902198164     0.436894938750    12.000000000000
         C            1.597753867205     0.606972801836     0.415989938750    12.000000000000
         H            0.017081867205    -1.495518198164     0.420192938750     1.007825032230
         H           -0.793389132795    -1.325050198164    -1.125596061250     1.007825032230
         H            0.045443867205     1.215812801836    -0.966014061250     1.007825032230
         H            1.101132867205    -0.051784198164    -1.561090061250     1.007825032230
         H           -2.211071132795     0.523780801836    -0.236267061250     1.007825032230
         H           -1.423873132795     0.389635801836     1.339697938750     1.007825032230
         H           -2.406774132795    -0.948294198164     0.731391938750     1.007825032230
         H            2.159655867205    -0.294534198164     0.683882938750     1.007825032230
         H            1.118172867205     0.978322801836     1.329217938750     1.007825032230
         H            2.313326867205     1.366795801836     0.085481938750     1.007825032230

  Charge       = 0
  Multiplicity = 1
  Basis Set: 6-311+G*
    Blend: 6-311+G*
  Basis Set: (6-311+G* AUX)
    Blend: HEAVY-AUG-CC-PVTZ-JKFIT

    Orbital Energies [Eh]
    ---------------------

    Doubly Occupied:

       1A    -10.273932     2A    -10.273734     3A    -10.266653
       4A    -10.266649     5A     -0.893888     6A     -0.819746
       7A     -0.731073     8A     -0.664415     9A     -0.546067
      10A     -0.538358    11A     -0.506324    12A     -0.472646
      13A     -0.457937    14A     -0.444683    15A     -0.410646
      16A     -0.402252    17A     -0.397937

  @DF-RKS Final Energy:  -158.43516262947225

   => Energetics <=

    Nuclear Repulsion Energy =            131.6381296743019220
    One-Electron Energy =                -471.8440335513671471
    Two-Electron Energy =                 198.9478976853467032
    DFT Exchange-Correlation Energy =     -17.1706345686379791
    Empirical Dispersion Energy =          -0.0065218691157503
    VV10 Nonlocal Energy =                  0.0000000000000000
    Total Energy =                       -158.4351626294722450

  Dipole Moment: [D]
     X:     0.0115      Y:    -0.0513      Z:    -0.1001     Total:     0.1130

*** Psi4 exiting successfully. Buy a developer a beer!
