                               Psi4 1.3.2 release

  ==> Input File <==

--------------------------------------------------------------------------
molecule {
0 1
  N                  2.7466090     1.0530820     1.7701760
  C                  1.4866550     0.8288760     1.2070090
  C                  1.3045810    -0.3430300     0.4489450
  C                  0.7231520     1.9510650     0.8343920
  C                  0.2190350    -0.4805680    -0.4405410
  C                 -0.3687780     1.8351680    -0.0503730
  C                 -0.6402600     0.6058840    -0.6730140
  H                  1.9887570    -1.1746620     0.5573080
  H                  0.9491110     2.9259740     1.2464930
  H                  0.0569860    -1.4378960    -0.9626570
  H                 -0.9976590     2.7156020    -0.2619850
  H                 -1.4891120     0.5076770    -1.3697260
  H                  3.0949380     2.0143920     1.8725060
  H                  3.5063160     0.3819680     1.6024310
--
0 1
  O                  3.8032430     1.9813730    -2.3088460
  H                  3.1824160     1.7340730    -1.6230220
  H                  4.6838890     1.9649220    -1.9352870
}
memory 700MB
set_num_threads(8)
psi4_io.set_default_path("/home/daniele/PSI4_sctatch/Psi4-aniline")
set maxiter 500
set freeze_core True
set PROPERTIES_ORIGIN ["COM"]
e_dim= energy('wb97x-d/aug-cc-pVDZ',bsse_type='cp')

psi4.print_out('CP Energy = %10.6f' % (e_dim))
clean()
--------------------------------------------------------------------------

    Molecular point group: c1
  Charge       = 0
  Multiplicity = 1
  Basis Set: AUG-CC-PVDZ
    Blend: AUG-CC-PVDZ
  Basis Set: (AUG-CC-PVDZ AUX)
    Blend: AUG-CC-PVDZ-JKFIT
  @DF-RKS Final Energy:   -76.41946715651758
    Total Energy =                        -76.4194671565175838
    Molecular point group: c1
  Basis Set: AUG-CC-PVDZ
    Blend: AUG-CC-PVDZ
  Basis Set: (AUG-CC-PVDZ AUX)
    Blend: AUG-CC-PVDZ-JKFIT
  @DF-RKS Final Energy:   -76.41958905413198
    Total Energy =                        -76.4195890541319898
  Basis Set: AUG-CC-PVDZ
    Blend: AUG-CC-PVDZ
  Basis Set: (AUG-CC-PVDZ AUX)
    Blend: AUG-CC-PVDZ-JKFIT
  @DF-RKS Final Energy:  -287.52365738545137
    Total Energy =                       -287.5236573854514290
  Multiplicity = 1
  Basis Set: AUG-CC-PVDZ
    Blend: AUG-CC-PVDZ
  Basis Set: (AUG-CC-PVDZ AUX)
    Blend: AUG-CC-PVDZ-JKFIT
  @DF-RKS Final Energy:  -287.52342541970864
    Total Energy =                       -287.5234254197086443
    Molecular point group: c1

    Geometry (in Angstrom), charge = 0, multiplicity = 1:

       Center              X                  Y                   Z               Mass
    ------------   -----------------  -----------------  -----------------  -----------------
         N            1.422389468551     0.072475233352     1.744116842529    14.003074004430
         C            0.162435468551    -0.151730766648     1.180949842529    12.000000000000
         C           -0.019638531449    -1.323636766648     0.422885842529    12.000000000000
         C           -0.601067531449     0.970458233352     0.808332842529    12.000000000000
         C           -1.105184531449    -1.461174766648    -0.466600157471    12.000000000000
         C           -1.692997531449     0.854561233352    -0.076432157471    12.000000000000
         C           -1.964479531449    -0.374722766648    -0.699073157471    12.000000000000
         H            0.664537468551    -2.155268766648     0.531248842529     1.007825032230
         H           -0.375108531449     1.945367233352     1.220433842529     1.007825032230
         H           -1.267233531449    -2.418502766648    -0.988716157471     1.007825032230
         H           -2.321878531449     1.734995233352    -0.288044157471     1.007825032230
         H           -2.813331531449    -0.472929766648    -1.395785157471     1.007825032230
         H            1.770718468551     1.033785233352     1.846446842529     1.007825032230
         H            2.182096468551    -0.598638766648     1.576371842529     1.007825032230
         O            2.479023468551     1.000766233352    -2.334905157471    15.994914619570
         H            1.858196468551     0.753466233352    -1.649081157471     1.007825032230
         H            3.359669468551     0.984315233352    -1.961346157471     1.007825032230

  Charge       = 0
  Multiplicity = 1
  Basis Set: AUG-CC-PVDZ
    Blend: AUG-CC-PVDZ
  Basis Set: (AUG-CC-PVDZ AUX)
    Blend: AUG-CC-PVDZ-JKFIT

    Orbital Energies [Eh]
    ---------------------

    Doubly Occupied:

       1A    -19.272163     2A    -14.464146     3A    -10.352632
       4A    -10.309985     5A    -10.309944     6A    -10.303726
       7A    -10.303614     8A    -10.300286     9A     -1.114587
      10A     -1.025394    11A     -0.939343    12A     -0.846973
      13A     -0.829694    14A     -0.711161    15A     -0.697864
      16A     -0.627334    17A     -0.619737    18A     -0.598232
      19A     -0.572127    20A     -0.524467    21A     -0.516456
      22A     -0.503689    23A     -0.481305    24A     -0.471731
      25A     -0.442086    26A     -0.429028    27A     -0.401439
      28A     -0.399386    29A     -0.330241    30A     -0.285197

  @DF-RKS Final Energy:  -363.94563612176404

   => Energetics <=

    Nuclear Repulsion Energy =            338.0274239301490411
    One-Electron Energy =               -1162.0343991783026922
    Two-Electron Energy =                 495.3554074076541269
    DFT Exchange-Correlation Energy =     -35.2871736591160072
    Empirical Dispersion Energy =          -0.0068946221486158
    VV10 Nonlocal Energy =                  0.0000000000000000
    Total Energy =                       -363.9456361217640961

  Dipole Moment: [D]
     X:     1.5960      Y:    -0.0743      Z:     1.4612     Total:     2.1651

*** Psi4 exiting successfully. Buy a developer a beer!
