                               Psi4 1.3.2 release

  ==> Input File <==

--------------------------------------------------------------------------
molecule {
0 1
  N                  2.7466090     1.0530820     1.7701760
  C                  1.4866550     0.8288760     1.2070090
  C                  1.3045810    -0.3430300     0.4489450
  C                  0.7231520     1.9510650     0.8343920
  C                  0.2190350    -0.4805680    -0.4405410
  C                 -0.3687780     1.8351680    -0.0503730
  C                 -0.6402600     0.6058840    -0.6730140
  H                  1.9887570    -1.1746620     0.5573080
  H                  0.9491110     2.9259740     1.2464930
  H                  0.0569860    -1.4378960    -0.9626570
  H                 -0.9976590     2.7156020    -0.2619850
  H                 -1.4891120     0.5076770    -1.3697260
  H                  3.0949380     2.0143920     1.8725060
  H                  3.5063160     0.3819680     1.6024310
--
0 1
  O                  3.6336669     1.8908533    -2.0258429
  H                  3.0128399     1.6435533    -1.3400189
  H                  4.5143129     1.8744023    -1.6522839
}
memory 700MB
set_num_threads(8)
psi4_io.set_default_path("/home/daniele/PSI4_sctatch/Psi4-aniline")
set maxiter 500
set freeze_core True
set PROPERTIES_ORIGIN ["COM"]
e_dim= energy('wb97x-d/aug-cc-pVDZ',bsse_type='cp')

psi4.print_out('CP Energy = %10.6f' % (e_dim))
clean()
--------------------------------------------------------------------------

    Molecular point group: c1
  Charge       = 0
  Multiplicity = 1
  Basis Set: AUG-CC-PVDZ
    Blend: AUG-CC-PVDZ
  Basis Set: (AUG-CC-PVDZ AUX)
    Blend: AUG-CC-PVDZ-JKFIT
  @DF-RKS Final Energy:   -76.41946715631862
    Total Energy =                        -76.4194671563186319
    Molecular point group: c1
  Basis Set: AUG-CC-PVDZ
    Blend: AUG-CC-PVDZ
  Basis Set: (AUG-CC-PVDZ AUX)
    Blend: AUG-CC-PVDZ-JKFIT
  @DF-RKS Final Energy:   -76.41963526537317
    Total Energy =                        -76.4196352653731736
  Basis Set: AUG-CC-PVDZ
    Blend: AUG-CC-PVDZ
  Basis Set: (AUG-CC-PVDZ AUX)
    Blend: AUG-CC-PVDZ-JKFIT
  @DF-RKS Final Energy:  -287.52372255223810
    Total Energy =                       -287.5237225522380982
  Multiplicity = 1
  Basis Set: AUG-CC-PVDZ
    Blend: AUG-CC-PVDZ
  Basis Set: (AUG-CC-PVDZ AUX)
    Blend: AUG-CC-PVDZ-JKFIT
  @DF-RKS Final Energy:  -287.52342569044868
    Total Energy =                       -287.5234256904486756
    Molecular point group: c1

    Geometry (in Angstrom), charge = 0, multiplicity = 1:

       Center              X                  Y                   Z               Mass
    ------------   -----------------  -----------------  -----------------  -----------------
         N            1.449887487208     0.087153672114     1.698225797012    14.003074004430
         C            0.189933487208    -0.137052327886     1.135058797012    12.000000000000
         C            0.007859487208    -1.308958327886     0.376994797012    12.000000000000
         C           -0.573569512792     0.985136672114     0.762441797012    12.000000000000
         C           -1.077686512792    -1.446496327886    -0.512491202988    12.000000000000
         C           -1.665499512792     0.869239672114    -0.122323202988    12.000000000000
         C           -1.936981512792    -0.360044327886    -0.744964202988    12.000000000000
         H            0.692035487208    -2.140590327886     0.485357797012     1.007825032230
         H           -0.347610512792     1.960045672114     1.174542797012     1.007825032230
         H           -1.239735512792    -2.403824327886    -1.034607202988     1.007825032230
         H           -2.294380512792     1.749673672114    -0.333935202988     1.007825032230
         H           -2.785833512792    -0.458251327886    -1.441676202988     1.007825032230
         H            1.798216487208     1.048463672114     1.800555797012     1.007825032230
         H            2.209594487208    -0.583960327886     1.530480797012     1.007825032230
         O            2.336945387208     0.924924972114    -2.097793102988    15.994914619570
         H            1.716118387208     0.677624972114    -1.411969102988     1.007825032230
         H            3.217591387208     0.908473972114    -1.724234102988     1.007825032230

  Charge       = 0
  Multiplicity = 1
  Basis Set: AUG-CC-PVDZ
    Blend: AUG-CC-PVDZ
  Basis Set: (AUG-CC-PVDZ AUX)
    Blend: AUG-CC-PVDZ-JKFIT

    Orbital Energies [Eh]
    ---------------------

    Doubly Occupied:

       1A    -19.270267     2A    -14.465136     3A    -10.353696
       4A    -10.310586     5A    -10.310563     6A    -10.304500
       7A    -10.304390     8A    -10.300848     9A     -1.112655
      10A     -1.026520    11A     -0.940113    12A     -0.847664
      13A     -0.830509    14A     -0.711871    15A     -0.698583
      16A     -0.625469    17A     -0.620461    18A     -0.599078
      19A     -0.572762    20A     -0.525102    21A     -0.517208
      22A     -0.504289    23A     -0.483372    24A     -0.469038
      25A     -0.442652    26A     -0.429637    27A     -0.400493
      28A     -0.399383    29A     -0.330950    30A     -0.286213

  @DF-RKS Final Energy:  -363.94669203114034

   => Energetics <=

    Nuclear Repulsion Energy =            342.3257348106961899
    One-Electron Energy =               -1170.6116176563705267
    Two-Electron Energy =                 499.6345920962554601
    DFT Exchange-Correlation Energy =     -35.2879141442679511
    Empirical Dispersion Energy =          -0.0074871374534952
    VV10 Nonlocal Energy =                  0.0000000000000000
    Total Energy =                       -363.9466920311403442

  Dipole Moment: [D]
     X:     1.5234      Y:    -0.0903      Z:     1.4660     Total:     2.1161

*** Psi4 exiting successfully. Buy a developer a beer!
