                               Psi4 1.3.2 release

  ==> Input File <==

--------------------------------------------------------------------------
molecule {
0 1
  N                  3.0895240     1.8402770    -1.3306660
  C                  1.7426930     1.5771090    -1.0570750
  C                  1.2802440     0.2555280    -1.2095530
  C                  1.0948130     2.3703140    -0.0903970
  C                  0.0609020    -0.1650430    -0.6395770
  C                 -0.1265590     1.9685150     0.4890010
  C                 -0.6624690     0.7040200     0.1938250
  H                  1.8479350    -0.4556110    -1.7954130
  H                  1.5164010     3.3224880     0.2044210
  H                 -0.3143900    -1.1821210    -0.8407630
  H                 -0.6510420     2.6453310     1.1836130
  H                 -1.6167990     0.3827750     0.6433610
  H                  3.5726000     2.5492910    -0.7659180
  H                  3.7061070     1.0467390    -1.5443670
--
0 1
  O                  3.0058628     0.3186498     1.5259556
  H                  2.4160438    -0.1000382     2.1525606
  H                  3.8669568     0.4051708     1.9337916
}
memory 700MB
set_num_threads(8)
psi4_io.set_default_path("/home/daniele/PSI4_sctatch/Psi4-aniline")
set maxiter 500
set freeze_core True
set PROPERTIES_ORIGIN ["COM"]
e_dim= energy('wb97x-d/aug-cc-pVDZ',bsse_type='cp')

psi4.print_out('CP Energy = %10.6f' % (e_dim))
clean()
--------------------------------------------------------------------------

    Molecular point group: c1
  Charge       = 0
  Multiplicity = 1
  Basis Set: AUG-CC-PVDZ
    Blend: AUG-CC-PVDZ
  Basis Set: (AUG-CC-PVDZ AUX)
    Blend: AUG-CC-PVDZ-JKFIT
  @DF-RKS Final Energy:   -76.41944161330785
    Total Energy =                        -76.4194416133078533
    Molecular point group: c1
  Basis Set: AUG-CC-PVDZ
    Blend: AUG-CC-PVDZ
  Basis Set: (AUG-CC-PVDZ AUX)
    Blend: AUG-CC-PVDZ-JKFIT
  @DF-RKS Final Energy:   -76.41977104097620
    Total Energy =                        -76.4197710409762010
  Basis Set: AUG-CC-PVDZ
    Blend: AUG-CC-PVDZ
  Basis Set: (AUG-CC-PVDZ AUX)
    Blend: AUG-CC-PVDZ-JKFIT
  @DF-RKS Final Energy:  -287.52509909669959
    Total Energy =                       -287.5250990966995914
  Multiplicity = 1
  Basis Set: AUG-CC-PVDZ
    Blend: AUG-CC-PVDZ
  Basis Set: (AUG-CC-PVDZ AUX)
    Blend: AUG-CC-PVDZ-JKFIT
  @DF-RKS Final Energy:  -287.52476425477835
    Total Energy =                       -287.5247642547784039
    Molecular point group: c1

    Geometry (in Angstrom), charge = 0, multiplicity = 1:

       Center              X                  Y                   Z               Mass
    ------------   -----------------  -----------------  -----------------  -----------------
         N            1.770761191666     0.759204058081    -1.143297290461    14.003074004430
         C            0.423930191666     0.496036058081    -0.869706290461    12.000000000000
         C           -0.038518808334    -0.825544941919    -1.022184290461    12.000000000000
         C           -0.223949808334     1.289241058081     0.096971709539    12.000000000000
         C           -1.257860808334    -1.246115941919    -0.452208290461    12.000000000000
         C           -1.445321808334     0.887442058081     0.676369709539    12.000000000000
         C           -1.981231808334    -0.377052941919     0.381193709539    12.000000000000
         H            0.529172191666    -1.536683941919    -1.608044290461     1.007825032230
         H            0.197638191666     2.241415058081     0.391789709539     1.007825032230
         H           -1.633152808334    -2.263193941919    -0.653394290461     1.007825032230
         H           -1.969804808334     1.564258058081     1.370981709539     1.007825032230
         H           -2.935561808334    -0.698297941919     0.830729709539     1.007825032230
         H            2.253837191666     1.468218058081    -0.578549290461     1.007825032230
         H            2.387344191666    -0.034333941919    -1.356998290461     1.007825032230
         O            1.687099991666    -0.762423141919     1.713324309539    15.994914619570
         H            1.097280991666    -1.181111141919     2.339929309539     1.007825032230
         H            2.548193991666    -0.675902141919     2.121160309539     1.007825032230

  Charge       = 0
  Multiplicity = 1
  Basis Set: AUG-CC-PVDZ
    Blend: AUG-CC-PVDZ
  Basis Set: (AUG-CC-PVDZ AUX)
    Blend: AUG-CC-PVDZ-JKFIT

    Orbital Energies [Eh]
    ---------------------

    Doubly Occupied:

       1A    -19.274371     2A    -14.445251     3A    -10.333629
       4A    -10.296052     5A    -10.295992     6A    -10.288589
       7A    -10.288473     8A    -10.288072     9A     -1.117605
      10A     -1.006512    11A     -0.924092    12A     -0.831944
      13A     -0.813669    14A     -0.695897    15A     -0.681867
      16A     -0.630900    17A     -0.603705    18A     -0.580341
      19A     -0.557653    20A     -0.509997    21A     -0.500302
      22A     -0.489172    23A     -0.485820    24A     -0.450604
      25A     -0.428895    26A     -0.414874    27A     -0.404427
      28A     -0.383229    29A     -0.314130    30A     -0.269289

  @DF-RKS Final Energy:  -363.94495782136346

   => Energetics <=

    Nuclear Repulsion Energy =            353.5002554567470838
    One-Electron Energy =               -1193.7346098167115542
    Two-Electron Energy =                 511.5845707373404707
    DFT Exchange-Correlation Energy =     -35.2871161057849747
    Empirical Dispersion Energy =          -0.0080580929543778
    VV10 Nonlocal Energy =                  0.0000000000000000
    Total Energy =                       -363.9449578213634027

  Dipole Moment: [D]
     X:     2.1884      Y:    -0.7902      Z:     2.4276     Total:     3.3626

*** Psi4 exiting successfully. Buy a developer a beer!
