                               Psi4 1.3.2 release

  ==> Input File <==

--------------------------------------------------------------------------
molecule {
0 1
  N                  2.7466090     1.0530820     1.7701760
  C                  1.4866550     0.8288760     1.2070090
  C                  1.3045810    -0.3430300     0.4489450
  C                  0.7231520     1.9510650     0.8343920
  C                  0.2190350    -0.4805680    -0.4405410
  C                 -0.3687780     1.8351680    -0.0503730
  C                 -0.6402600     0.6058840    -0.6730140
  H                  1.9887570    -1.1746620     0.5573080
  H                  0.9491110     2.9259740     1.2464930
  H                  0.0569860    -1.4378960    -0.9626570
  H                 -0.9976590     2.7156020    -0.2619850
  H                 -1.4891120     0.5076770    -1.3697260
  H                  3.0949380     2.0143920     1.8725060
  H                  3.5063160     0.3819680     1.6024310
--
0 1
  O                  3.9728191     2.0718927    -2.5918491
  H                  3.3519921     1.8245927    -1.9060251
  H                  4.8534651     2.0554417    -2.2182901
}
memory 700MB
set_num_threads(8)
psi4_io.set_default_path("/home/daniele/PSI4_sctatch/Psi4-aniline")
set maxiter 500
set freeze_core True
set PROPERTIES_ORIGIN ["COM"]
e_dim= energy('wb97x-d/aug-cc-pVDZ',bsse_type='cp')

psi4.print_out('CP Energy = %10.6f' % (e_dim))
clean()
--------------------------------------------------------------------------

    Molecular point group: c1
  Charge       = 0
  Multiplicity = 1
  Basis Set: AUG-CC-PVDZ
    Blend: AUG-CC-PVDZ
  Basis Set: (AUG-CC-PVDZ AUX)
    Blend: AUG-CC-PVDZ-JKFIT
  @DF-RKS Final Energy:   -76.41946715640685
    Total Energy =                        -76.4194671564068528
    Molecular point group: c1
  Basis Set: AUG-CC-PVDZ
    Blend: AUG-CC-PVDZ
  Basis Set: (AUG-CC-PVDZ AUX)
    Blend: AUG-CC-PVDZ-JKFIT
  @DF-RKS Final Energy:   -76.41955768604043
    Total Energy =                        -76.4195576860404344
  Basis Set: AUG-CC-PVDZ
    Blend: AUG-CC-PVDZ
  Basis Set: (AUG-CC-PVDZ AUX)
    Blend: AUG-CC-PVDZ-JKFIT
  @DF-RKS Final Energy:  -287.52357594833154
    Total Energy =                       -287.5235759483315974
  Multiplicity = 1
  Basis Set: AUG-CC-PVDZ
    Blend: AUG-CC-PVDZ
  Basis Set: (AUG-CC-PVDZ AUX)
    Blend: AUG-CC-PVDZ-JKFIT
  @DF-RKS Final Energy:  -287.52342534331729
    Total Energy =                       -287.5234253433173421
    Molecular point group: c1

    Geometry (in Angstrom), charge = 0, multiplicity = 1:

       Center              X                  Y                   Z               Mass
    ------------   -----------------  -----------------  -----------------  -----------------
         N            1.394891449895     0.057796794590     1.790007888045    14.003074004430
         C            0.134937449895    -0.166409205410     1.226840888045    12.000000000000
         C           -0.047136550105    -1.338315205410     0.468776888045    12.000000000000
         C           -0.628565550105     0.955779794590     0.854223888045    12.000000000000
         C           -1.132682550105    -1.475853205410    -0.420709111955    12.000000000000
         C           -1.720495550105     0.839882794590    -0.030541111955    12.000000000000
         C           -1.991977550105    -0.389401205410    -0.653182111955    12.000000000000
         H            0.637039449895    -2.169947205410     0.577139888045     1.007825032230
         H           -0.402606550105     1.930688794590     1.266324888045     1.007825032230
         H           -1.294731550105    -2.433181205410    -0.942825111955     1.007825032230
         H           -2.349376550105     1.720316794590    -0.242153111955     1.007825032230
         H           -2.840829550105    -0.487608205410    -1.349894111955     1.007825032230
         H            1.743220449895     1.019106794590     1.892337888045     1.007825032230
         H            2.154598449895    -0.613317205410     1.622262888045     1.007825032230
         O            2.621101549895     1.076607494590    -2.572017211955    15.994914619570
         H            2.000274549895     0.829307494590    -1.886193211955     1.007825032230
         H            3.501747549895     1.060156494590    -2.198458211955     1.007825032230

  Charge       = 0
  Multiplicity = 1
  Basis Set: AUG-CC-PVDZ
    Blend: AUG-CC-PVDZ
  Basis Set: (AUG-CC-PVDZ AUX)
    Blend: AUG-CC-PVDZ-JKFIT

    Orbital Energies [Eh]
    ---------------------

    Doubly Occupied:

       1A    -19.273579     2A    -14.463246     3A    -10.351736
       4A    -10.309434     5A    -10.309397     6A    -10.303070
       7A    -10.302968     8A    -10.299809     9A     -1.116046
      10A     -1.024427    11A     -0.938660    12A     -0.846341
      13A     -0.828986    14A     -0.710517    15A     -0.697209
      16A     -0.628826    17A     -0.619081    18A     -0.597456
      19A     -0.571534    20A     -0.523885    21A     -0.515781
      22A     -0.503101    23A     -0.479872    24A     -0.473572
      25A     -0.441523    26A     -0.428474    27A     -0.402756
      28A     -0.398693    29A     -0.329602    30A     -0.284347

  @DF-RKS Final Energy:  -363.94482382342085

   => Energetics <=

    Nuclear Repulsion Energy =            334.2324692016933909
    One-Electron Energy =               -1154.4641984070140097
    Two-Electron Energy =                 491.5801092478470764
    DFT Exchange-Correlation Energy =     -35.2867140064291505
    Empirical Dispersion Energy =          -0.0064898595182530
    VV10 Nonlocal Energy =                  0.0000000000000000
    Total Energy =                       -363.9448238234209043

  Dipole Moment: [D]
     X:     1.6555      Y:    -0.0608      Z:     1.4570     Total:     2.2062

*** Psi4 exiting successfully. Buy a developer a beer!
