                               Psi4 1.3.2 release

  ==> Input File <==

--------------------------------------------------------------------------
molecule {
0 1
  N                  3.0895240     1.8402770    -1.3306660
  C                  1.7426930     1.5771090    -1.0570750
  C                  1.2802440     0.2555280    -1.2095530
  C                  1.0948130     2.3703140    -0.0903970
  C                  0.0609020    -0.1650430    -0.6395770
  C                 -0.1265590     1.9685150     0.4890010
  C                 -0.6624690     0.7040200     0.1938250
  H                  1.8479350    -0.4556110    -1.7954130
  H                  1.5164010     3.3224880     0.2044210
  H                 -0.3143900    -1.1821210    -0.8407630
  H                 -0.6510420     2.6453310     1.1836130
  H                 -1.6167990     0.3827750     0.6433610
  H                  3.5726000     2.5492910    -0.7659180
  H                  3.7061070     1.0467390    -1.5443670
--
0 1
  O                  3.1462150     0.1788210     1.8129590
  H                  2.5563960    -0.2398670     2.4395640
  H                  4.0073090     0.2653420     2.2207950
}
memory 700MB
set_num_threads(8)
psi4_io.set_default_path("/home/daniele/PSI4_sctatch/Psi4-aniline")
set maxiter 500
set freeze_core True
set PROPERTIES_ORIGIN ["COM"]
e_dim= energy('wb97x-d/aug-cc-pVDZ',bsse_type='cp')

psi4.print_out('CP Energy = %10.6f' % (e_dim))
clean()
--------------------------------------------------------------------------

    Molecular point group: c1
  Charge       = 0
  Multiplicity = 1
  Basis Set: AUG-CC-PVDZ
    Blend: AUG-CC-PVDZ
  Basis Set: (AUG-CC-PVDZ AUX)
    Blend: AUG-CC-PVDZ-JKFIT
  @DF-RKS Final Energy:   -76.41944161335118
    Total Energy =                        -76.4194416133511822
    Molecular point group: c1
  Basis Set: AUG-CC-PVDZ
    Blend: AUG-CC-PVDZ
  Basis Set: (AUG-CC-PVDZ AUX)
    Blend: AUG-CC-PVDZ-JKFIT
  @DF-RKS Final Energy:   -76.41966607354271
    Total Energy =                        -76.4196660735427145
  Basis Set: AUG-CC-PVDZ
    Blend: AUG-CC-PVDZ
  Basis Set: (AUG-CC-PVDZ AUX)
    Blend: AUG-CC-PVDZ-JKFIT
  @DF-RKS Final Energy:  -287.52504485774313
    Total Energy =                       -287.5250448577431257
  Multiplicity = 1
  Basis Set: AUG-CC-PVDZ
    Blend: AUG-CC-PVDZ
  Basis Set: (AUG-CC-PVDZ AUX)
    Blend: AUG-CC-PVDZ-JKFIT
  @DF-RKS Final Energy:  -287.52476380591941
    Total Energy =                       -287.5247638059194628
    Molecular point group: c1

    Geometry (in Angstrom), charge = 0, multiplicity = 1:

       Center              X                  Y                   Z               Mass
    ------------   -----------------  -----------------  -----------------  -----------------
         N            1.748002044510     0.781878332057    -1.189837014205    14.003074004430
         C            0.401171044510     0.518710332057    -0.916246014205    12.000000000000
         C           -0.061277955490    -0.802870667943    -1.068724014205    12.000000000000
         C           -0.246708955490     1.311915332057     0.050431985795    12.000000000000
         C           -1.280619955490    -1.223441667943    -0.498748014205    12.000000000000
         C           -1.468080955490     0.910116332057     0.629829985795    12.000000000000
         C           -2.003990955490    -0.354378667943     0.334653985795    12.000000000000
         H            0.506413044510    -1.514009667943    -1.654584014205     1.007825032230
         H            0.174879044510     2.264089332057     0.345249985795     1.007825032230
         H           -1.655911955490    -2.240519667943    -0.699934014205     1.007825032230
         H           -1.992563955490     1.586932332057     1.324441985795     1.007825032230
         H           -2.958320955490    -0.675623667943     0.784189985795     1.007825032230
         H            2.231078044510     1.490892332057    -0.625089014205     1.007825032230
         H            2.364585044510    -0.011659667943    -1.403538014205     1.007825032230
         O            1.804693044510    -0.879577667943     1.953787985795    15.994914619570
         H            1.214874044510    -1.298265667943     2.580392985795     1.007825032230
         H            2.665787044510    -0.793056667943     2.361623985795     1.007825032230

  Charge       = 0
  Multiplicity = 1
  Basis Set: AUG-CC-PVDZ
    Blend: AUG-CC-PVDZ
  Basis Set: (AUG-CC-PVDZ AUX)
    Blend: AUG-CC-PVDZ-JKFIT

    Orbital Energies [Eh]
    ---------------------

    Doubly Occupied:

       1A    -19.275013     2A    -14.446409     3A    -10.335325
       4A    -10.296791     5A    -10.296778     6A    -10.289441
       7A    -10.289336     8A    -10.288448     9A     -1.117764
      10A     -1.007908    11A     -0.924863    12A     -0.832776
      13A     -0.814573    14A     -0.696798    15A     -0.682713
      16A     -0.631094    17A     -0.604544    18A     -0.581288
      19A     -0.558380    20A     -0.510776    21A     -0.501192
      22A     -0.489970    23A     -0.480373    24A     -0.457360
      25A     -0.429566    26A     -0.415550    27A     -0.404345
      28A     -0.384313    29A     -0.315287    30A     -0.270353

  @DF-RKS Final Energy:  -363.94531064128392

   => Energetics <=

    Nuclear Repulsion Energy =            347.6592018480012598
    One-Electron Energy =               -1182.0078898287479205
    Two-Electron Energy =                 505.6954673146831851
    DFT Exchange-Correlation Energy =     -35.2846745701324096
    Empirical Dispersion Energy =          -0.0074154050880065
    VV10 Nonlocal Energy =                  0.0000000000000000
    Total Energy =                       -363.9453106412839247

  Dipole Moment: [D]
     X:     2.1316      Y:    -0.7949      Z:     2.4306     Total:     3.3292

*** Psi4 exiting successfully. Buy a developer a beer!
