                               Psi4 1.3.2 release

  ==> Input File <==

--------------------------------------------------------------------------
molecule {
0 1
  N                  2.7466090     1.0530820     1.7701760
  C                  1.4866550     0.8288760     1.2070090
  C                  1.3045810    -0.3430300     0.4489450
  C                  0.7231520     1.9510650     0.8343920
  C                  0.2190350    -0.4805680    -0.4405410
  C                 -0.3687780     1.8351680    -0.0503730
  C                 -0.6402600     0.6058840    -0.6730140
  H                  1.9887570    -1.1746620     0.5573080
  H                  0.9491110     2.9259740     1.2464930
  H                  0.0569860    -1.4378960    -0.9626570
  H                 -0.9976590     2.7156020    -0.2619850
  H                 -1.4891120     0.5076770    -1.3697260
  H                  3.0949380     2.0143920     1.8725060
  H                  3.5063160     0.3819680     1.6024310
--
0 1
  O                  3.4640908     1.8003336    -1.7428398
  H                  2.8432638     1.5530336    -1.0570158
  H                  4.3447368     1.7838826    -1.3692808
}
memory 700MB
set_num_threads(8)
psi4_io.set_default_path("/home/daniele/PSI4_sctatch/Psi4-aniline")
set maxiter 500
set freeze_core True
set PROPERTIES_ORIGIN ["COM"]
e_dim= energy('wb97x-d/aug-cc-pVDZ',bsse_type='cp')

psi4.print_out('CP Energy = %10.6f' % (e_dim))
clean()
--------------------------------------------------------------------------

    Molecular point group: c1
  Charge       = 0
  Multiplicity = 1
  Basis Set: AUG-CC-PVDZ
    Blend: AUG-CC-PVDZ
  Basis Set: (AUG-CC-PVDZ AUX)
    Blend: AUG-CC-PVDZ-JKFIT
  @DF-RKS Final Energy:   -76.41946715632622
    Total Energy =                        -76.4194671563262204
    Molecular point group: c1
  Basis Set: AUG-CC-PVDZ
    Blend: AUG-CC-PVDZ
  Basis Set: (AUG-CC-PVDZ AUX)
    Blend: AUG-CC-PVDZ-JKFIT
  @DF-RKS Final Energy:   -76.41970826631517
    Total Energy =                        -76.4197082663151832
  Basis Set: AUG-CC-PVDZ
    Blend: AUG-CC-PVDZ
  Basis Set: (AUG-CC-PVDZ AUX)
    Blend: AUG-CC-PVDZ-JKFIT
  @DF-RKS Final Energy:  -287.52385084943433
    Total Energy =                       -287.5238508494343250
  Multiplicity = 1
  Basis Set: AUG-CC-PVDZ
    Blend: AUG-CC-PVDZ
  Basis Set: (AUG-CC-PVDZ AUX)
    Blend: AUG-CC-PVDZ-JKFIT
  @DF-RKS Final Energy:  -287.52342535703878
    Total Energy =                       -287.5234253570387750
    Molecular point group: c1

    Geometry (in Angstrom), charge = 0, multiplicity = 1:

       Center              X                  Y                   Z               Mass
    ------------   -----------------  -----------------  -----------------  -----------------
         N            1.477385505864     0.101832110876     1.652334751496    14.003074004430
         C            0.217431505864    -0.122373889124     1.089167751496    12.000000000000
         C            0.035357505864    -1.294279889124     0.331103751496    12.000000000000
         C           -0.546071494136     0.999815110876     0.716550751496    12.000000000000
         C           -1.050188494136    -1.431817889124    -0.558382248504    12.000000000000
         C           -1.638001494136     0.883918110876    -0.168214248504    12.000000000000
         C           -1.909483494136    -0.345365889124    -0.790855248504    12.000000000000
         H            0.719533505864    -2.125911889124     0.439466751496     1.007825032230
         H           -0.320112494136     1.974724110876     1.128651751496     1.007825032230
         H           -1.212237494136    -2.389145889124    -1.080498248504     1.007825032230
         H           -2.266882494136     1.764352110876    -0.379826248504     1.007825032230
         H           -2.758335494136    -0.443572889124    -1.487567248504     1.007825032230
         H            1.825714505864     1.063142110876     1.754664751496     1.007825032230
         H            2.237092505864    -0.569281889124     1.484589751496     1.007825032230
         O            2.194867305864     0.849083710876    -1.860681048504    15.994914619570
         H            1.574040305864     0.601783710876    -1.174857048504     1.007825032230
         H            3.075513305864     0.832632710876    -1.487122048504     1.007825032230

  Charge       = 0
  Multiplicity = 1
  Basis Set: AUG-CC-PVDZ
    Blend: AUG-CC-PVDZ
  Basis Set: (AUG-CC-PVDZ AUX)
    Blend: AUG-CC-PVDZ-JKFIT

    Orbital Energies [Eh]
    ---------------------

    Doubly Occupied:

       1A    -19.267239     2A    -14.466210     3A    -10.354937
       4A    -10.311275     5A    -10.311270     6A    -10.305454
       7A    -10.305344     8A    -10.301513     9A     -1.109825
      10A     -1.027878    11A     -0.941020    12A     -0.848463
      13A     -0.831495    14A     -0.712703    15A     -0.699417
      16A     -0.623170    17A     -0.621141    18A     -0.600029
      19A     -0.573489    20A     -0.525829    21A     -0.518066
      22A     -0.504989    23A     -0.486209    24A     -0.464896
      25A     -0.443334    26A     -0.430321    27A     -0.401177
      28A     -0.397018    29A     -0.331617    30A     -0.287481

  @DF-RKS Final Energy:  -363.94786418379249

   => Energetics <=

    Nuclear Repulsion Energy =            347.2221655613582811
    One-Electron Energy =               -1180.3867502574512400
    Two-Electron Energy =                 504.5149328379572466
    DFT Exchange-Correlation Energy =     -35.2900255222078556
    Empirical Dispersion Energy =          -0.0081868034488376
    VV10 Nonlocal Energy =                  0.0000000000000000
    Total Energy =                       -363.9478641837924329

  Dipole Moment: [D]
     X:     1.4314      Y:    -0.1113      Z:     1.4722     Total:     2.0564

*** Psi4 exiting successfully. Buy a developer a beer!
