                               Psi4 1.3.2 release

  ==> Input File <==

--------------------------------------------------------------------------
molecule {
0 1
  N                  3.0895240     1.8402770    -1.3306660
  C                  1.7426930     1.5771090    -1.0570750
  C                  1.2802440     0.2555280    -1.2095530
  C                  1.0948130     2.3703140    -0.0903970
  C                  0.0609020    -0.1650430    -0.6395770
  C                 -0.1265590     1.9685150     0.4890010
  C                 -0.6624690     0.7040200     0.1938250
  H                  1.8479350    -0.4556110    -1.7954130
  H                  1.5164010     3.3224880     0.2044210
  H                 -0.3143900    -1.1821210    -0.8407630
  H                 -0.6510420     2.6453310     1.1836130
  H                 -1.6167990     0.3827750     0.6433610
  H                  3.5726000     2.5492910    -0.7659180
  H                  3.7061070     1.0467390    -1.5443670
--
0 1
  O                  3.2865672     0.0389922     2.0999624
  H                  2.6967482    -0.3796958     2.7265674
  H                  4.1476612     0.1255132     2.5077984
}
memory 700MB
set_num_threads(8)
psi4_io.set_default_path("/home/daniele/PSI4_sctatch/Psi4-aniline")
set maxiter 500
set freeze_core True
set PROPERTIES_ORIGIN ["COM"]
e_dim= energy('wb97x-d/aug-cc-pVDZ',bsse_type='cp')

psi4.print_out('CP Energy = %10.6f' % (e_dim))
clean()
--------------------------------------------------------------------------

    Molecular point group: c1
  Charge       = 0
  Multiplicity = 1
  Basis Set: AUG-CC-PVDZ
    Blend: AUG-CC-PVDZ
  Basis Set: (AUG-CC-PVDZ AUX)
    Blend: AUG-CC-PVDZ-JKFIT
  @DF-RKS Final Energy:   -76.41944161323259
    Total Energy =                        -76.4194416132325784
    Molecular point group: c1
  Basis Set: AUG-CC-PVDZ
    Blend: AUG-CC-PVDZ
  Basis Set: (AUG-CC-PVDZ AUX)
    Blend: AUG-CC-PVDZ-JKFIT
  @DF-RKS Final Energy:   -76.41960925316191
    Total Energy =                        -76.4196092531619087
  Basis Set: AUG-CC-PVDZ
    Blend: AUG-CC-PVDZ
  Basis Set: (AUG-CC-PVDZ AUX)
    Blend: AUG-CC-PVDZ-JKFIT
  @DF-RKS Final Energy:  -287.52499692330400
    Total Energy =                       -287.5249969233040588
  Multiplicity = 1
  Basis Set: AUG-CC-PVDZ
    Blend: AUG-CC-PVDZ
  Basis Set: (AUG-CC-PVDZ AUX)
    Blend: AUG-CC-PVDZ-JKFIT
  @DF-RKS Final Energy:  -287.52476380944074
    Total Energy =                       -287.5247638094407421
    Molecular point group: c1

    Geometry (in Angstrom), charge = 0, multiplicity = 1:

       Center              X                  Y                   Z               Mass
    ------------   -----------------  -----------------  -----------------  -----------------
         N            1.725242897354     0.804552606032    -1.236376737949    14.003074004430
         C            0.378411897354     0.541384606032    -0.962785737949    12.000000000000
         C           -0.084037102646    -0.780196393968    -1.115263737949    12.000000000000
         C           -0.269468102646     1.334589606032     0.003892262051    12.000000000000
         C           -1.303379102646    -1.200767393968    -0.545287737949    12.000000000000
         C           -1.490840102646     0.932790606032     0.583290262051    12.000000000000
         C           -2.026750102646    -0.331704393968     0.288114262051    12.000000000000
         H            0.483653897354    -1.491335393968    -1.701123737949     1.007825032230
         H            0.152119897354     2.286763606032     0.298710262051     1.007825032230
         H           -1.678671102646    -2.217845393968    -0.746473737949     1.007825032230
         H           -2.015323102646     1.609606606032     1.277902262051     1.007825032230
         H           -2.981080102646    -0.652949393968     0.737650262051     1.007825032230
         H            2.208318897354     1.513566606032    -0.671628737949     1.007825032230
         H            2.341825897354     0.011014606032    -1.450077737949     1.007825032230
         O            1.922286097354    -0.996732193968     2.194251662051    15.994914619570
         H            1.332467097354    -1.415420193968     2.820856662051     1.007825032230
         H            2.783380097354    -0.910211193968     2.602087662051     1.007825032230

  Charge       = 0
  Multiplicity = 1
  Basis Set: AUG-CC-PVDZ
    Blend: AUG-CC-PVDZ
  Basis Set: (AUG-CC-PVDZ AUX)
    Blend: AUG-CC-PVDZ-JKFIT

    Orbital Energies [Eh]
    ---------------------

    Doubly Occupied:

       1A    -19.275369     2A    -14.447425     3A    -10.336562
       4A    -10.297490     5A    -10.297479     6A    -10.290230
       7A    -10.290136     8A    -10.288937     9A     -1.118033
      10A     -1.009112    11A     -0.925638    12A     -0.833576
      13A     -0.815413    14A     -0.697622    15A     -0.683500
      16A     -0.631387    17A     -0.605342    18A     -0.582186
      19A     -0.559087    20A     -0.511493    21A     -0.502017
      22A     -0.490710    23A     -0.477596    24A     -0.461540
      25A     -0.430188    26A     -0.416241    27A     -0.404512
      28A     -0.385166    29A     -0.316257    30A     -0.271326

  @DF-RKS Final Energy:  -363.94500422618393

   => Energetics <=

    Nuclear Repulsion Energy =            342.5827173158193091
    One-Electron Energy =               -1171.8107900217896713
    Two-Electron Energy =                 500.5743308807194580
    DFT Exchange-Correlation Energy =     -35.2843954610671489
    Empirical Dispersion Energy =          -0.0068669398658754
    VV10 Nonlocal Energy =                  0.0000000000000000
    Total Energy =                       -363.9450042261839258

  Dipole Moment: [D]
     X:     2.0862      Y:    -0.7972      Z:     2.4306     Total:     3.3009

*** Psi4 exiting successfully. Buy a developer a beer!
