                               Psi4 1.3.2 release

  ==> Input File <==

--------------------------------------------------------------------------
molecule {
0 1
  N                  3.0895240     1.8402770    -1.3306660
  C                  1.7426930     1.5771090    -1.0570750
  C                  1.2802440     0.2555280    -1.2095530
  C                  1.0948130     2.3703140    -0.0903970
  C                  0.0609020    -0.1650430    -0.6395770
  C                 -0.1265590     1.9685150     0.4890010
  C                 -0.6624690     0.7040200     0.1938250
  H                  1.8479350    -0.4556110    -1.7954130
  H                  1.5164010     3.3224880     0.2044210
  H                 -0.3143900    -1.1821210    -0.8407630
  H                 -0.6510420     2.6453310     1.1836130
  H                 -1.6167990     0.3827750     0.6433610
  H                  3.5726000     2.5492910    -0.7659180
  H                  3.7061070     1.0467390    -1.5443670
--
0 1
  O                  3.4269194    -0.1008366     2.3869658
  H                  2.8371004    -0.5195246     3.0135708
  H                  4.2880134    -0.0143156     2.7948018
}
memory 700MB
set_num_threads(8)
psi4_io.set_default_path("/home/daniele/PSI4_sctatch/Psi4-aniline")
set maxiter 500
set freeze_core True
set PROPERTIES_ORIGIN ["COM"]
e_dim= energy('wb97x-d/aug-cc-pVDZ',bsse_type='cp')

psi4.print_out('CP Energy = %10.6f' % (e_dim))
clean()
--------------------------------------------------------------------------

    Molecular point group: c1
  Charge       = 0
  Multiplicity = 1
  Basis Set: AUG-CC-PVDZ
    Blend: AUG-CC-PVDZ
  Basis Set: (AUG-CC-PVDZ AUX)
    Blend: AUG-CC-PVDZ-JKFIT
  @DF-RKS Final Energy:   -76.41944161345529
    Total Energy =                        -76.4194416134552910
    Molecular point group: c1
  Basis Set: AUG-CC-PVDZ
    Blend: AUG-CC-PVDZ
  Basis Set: (AUG-CC-PVDZ AUX)
    Blend: AUG-CC-PVDZ-JKFIT
  @DF-RKS Final Energy:   -76.41956936793267
    Total Energy =                        -76.4195693679326524
  Basis Set: AUG-CC-PVDZ
    Blend: AUG-CC-PVDZ
  Basis Set: (AUG-CC-PVDZ AUX)
    Blend: AUG-CC-PVDZ-JKFIT
  @DF-RKS Final Energy:  -287.52492442642176
    Total Energy =                       -287.5249244264217623
  Multiplicity = 1
  Basis Set: AUG-CC-PVDZ
    Blend: AUG-CC-PVDZ
  Basis Set: (AUG-CC-PVDZ AUX)
    Blend: AUG-CC-PVDZ-JKFIT
  @DF-RKS Final Energy:  -287.52476360147512
    Total Energy =                       -287.5247636014751151
    Molecular point group: c1

    Geometry (in Angstrom), charge = 0, multiplicity = 1:

       Center              X                  Y                   Z               Mass
    ------------   -----------------  -----------------  -----------------  -----------------
         N            1.702483750198     0.827226880007    -1.282916461692    14.003074004430
         C            0.355652750198     0.564058880007    -1.009325461692    12.000000000000
         C           -0.106796249802    -0.757522119993    -1.161803461692    12.000000000000
         C           -0.292227249802     1.357263880007    -0.042647461692    12.000000000000
         C           -1.326138249802    -1.178093119993    -0.591827461692    12.000000000000
         C           -1.513599249802     0.955464880007     0.536750538308    12.000000000000
         C           -2.049509249802    -0.309030119993     0.241574538308    12.000000000000
         H            0.460894750198    -1.468661119993    -1.747663461692     1.007825032230
         H            0.129360750198     2.309437880007     0.252170538308     1.007825032230
         H           -1.701430249802    -2.195171119993    -0.793013461692     1.007825032230
         H           -2.038082249802     1.632280880007     1.231362538308     1.007825032230
         H           -3.003839249802    -0.630275119993     0.691110538308     1.007825032230
         H            2.185559750198     1.536240880007    -0.718168461692     1.007825032230
         H            2.319066750198     0.033688880007    -1.496617461692     1.007825032230
         O            2.039879150198    -1.113886719993     2.434715338308    15.994914619570
         H            1.450060150198    -1.532574719993     3.061320338308     1.007825032230
         H            2.900973150198    -1.027365719993     2.842551338308     1.007825032230

  Charge       = 0
  Multiplicity = 1
  Basis Set: AUG-CC-PVDZ
    Blend: AUG-CC-PVDZ
  Basis Set: (AUG-CC-PVDZ AUX)
    Blend: AUG-CC-PVDZ-JKFIT

    Orbital Energies [Eh]
    ---------------------

    Doubly Occupied:

       1A    -19.275729     2A    -14.448341     3A    -10.337583
       4A    -10.298145     5A    -10.298126     6A    -10.290976
       7A    -10.290895     8A    -10.289428     9A     -1.118371
      10A     -1.010157    11A     -0.926364    12A     -0.834312
      13A     -0.816168    14A     -0.698370    15A     -0.684225
      16A     -0.631751    17A     -0.606065    18A     -0.583024
      19A     -0.559748    20A     -0.512143    21A     -0.502757
      22A     -0.491413    23A     -0.476525    24A     -0.464016
      25A     -0.430791    26A     -0.416886    27A     -0.404818
      28A     -0.385937    29A     -0.317073    30A     -0.272203

  @DF-RKS Final Energy:  -363.94470824389487

   => Energetics <=

    Nuclear Repulsion Energy =            338.1436106829989967
    One-Electron Energy =               -1162.8909760738768000
    Two-Electron Energy =                 496.0937345346748657
    DFT Exchange-Correlation Energy =     -35.2845973588748194
    Empirical Dispersion Energy =          -0.0064800288171288
    VV10 Nonlocal Energy =                  0.0000000000000000
    Total Energy =                       -363.9447082438948655

  Dipole Moment: [D]
     X:     2.0491      Y:    -0.7971      Z:     2.4277     Total:     3.2754

*** Psi4 exiting successfully. Buy a developer a beer!
