                               Psi4 1.3.2 release

  ==> Input File <==

--------------------------------------------------------------------------
molecule {
0 1
  N                  2.7466090     1.0530820     1.7701760
  C                  1.4866550     0.8288760     1.2070090
  C                  1.3045810    -0.3430300     0.4489450
  C                  0.7231520     1.9510650     0.8343920
  C                  0.2190350    -0.4805680    -0.4405410
  C                 -0.3687780     1.8351680    -0.0503730
  C                 -0.6402600     0.6058840    -0.6730140
  H                  1.9887570    -1.1746620     0.5573080
  H                  0.9491110     2.9259740     1.2464930
  H                  0.0569860    -1.4378960    -0.9626570
  H                 -0.9976590     2.7156020    -0.2619850
  H                 -1.4891120     0.5076770    -1.3697260
  H                  3.0949380     2.0143920     1.8725060
  H                  3.5063160     0.3819680     1.6024310
--
0 1
  O                  4.1423952     2.1624124    -2.8748522
  H                  3.5215682     1.9151124    -2.1890282
  H                  5.0230412     2.1459614    -2.5012932
}
memory 700MB
set_num_threads(8)
psi4_io.set_default_path("/home/daniele/PSI4_sctatch/Psi4-aniline")
set maxiter 500
set freeze_core True
set PROPERTIES_ORIGIN ["COM"]
e_dim= energy('wb97x-d/aug-cc-pVDZ',bsse_type='cp')

psi4.print_out('CP Energy = %10.6f' % (e_dim))
clean()
--------------------------------------------------------------------------

    Molecular point group: c1
  Charge       = 0
  Multiplicity = 1
  Basis Set: AUG-CC-PVDZ
    Blend: AUG-CC-PVDZ
  Basis Set: (AUG-CC-PVDZ AUX)
    Blend: AUG-CC-PVDZ-JKFIT
  @DF-RKS Final Energy:   -76.41946715649556
    Total Energy =                        -76.4194671564955570
    Molecular point group: c1
  Basis Set: AUG-CC-PVDZ
    Blend: AUG-CC-PVDZ
  Basis Set: (AUG-CC-PVDZ AUX)
    Blend: AUG-CC-PVDZ-JKFIT
  @DF-RKS Final Energy:   -76.41953892053145
    Total Energy =                        -76.4195389205314513
  Basis Set: AUG-CC-PVDZ
    Blend: AUG-CC-PVDZ
  Basis Set: (AUG-CC-PVDZ AUX)
    Blend: AUG-CC-PVDZ-JKFIT
  @DF-RKS Final Energy:  -287.52357522076562
    Total Energy =                       -287.5235752207656788
  Multiplicity = 1
  Basis Set: AUG-CC-PVDZ
    Blend: AUG-CC-PVDZ
  Basis Set: (AUG-CC-PVDZ AUX)
    Blend: AUG-CC-PVDZ-JKFIT
  @DF-RKS Final Energy:  -287.52342503311326
    Total Energy =                       -287.5234250331133126
    Molecular point group: c1

    Geometry (in Angstrom), charge = 0, multiplicity = 1:

       Center              X                  Y                   Z               Mass
    ------------   -----------------  -----------------  -----------------  -----------------
         N            1.367393431239     0.043118355828     1.835898933561    14.003074004430
         C            0.107439431239    -0.181087644172     1.272731933561    12.000000000000
         C           -0.074634568761    -1.352993644172     0.514667933561    12.000000000000
         C           -0.656063568761     0.941101355828     0.900114933561    12.000000000000
         C           -1.160180568761    -1.490531644172    -0.374818066439    12.000000000000
         C           -1.747993568761     0.825204355828     0.015349933561    12.000000000000
         C           -2.019475568761    -0.404079644172    -0.607291066439    12.000000000000
         H            0.609541431239    -2.184625644172     0.623030933561     1.007825032230
         H           -0.430104568761     1.916010355828     1.312215933561     1.007825032230
         H           -1.322229568761    -2.447859644172    -0.896934066439     1.007825032230
         H           -2.376874568761     1.705638355828    -0.196262066439     1.007825032230
         H           -2.868327568761    -0.502286644172    -1.304003066439     1.007825032230
         H            1.715722431239     1.004428355828     1.938228933561     1.007825032230
         H            2.127100431239    -0.627995644172     1.668153933561     1.007825032230
         O            2.763179631239     1.152448755828    -2.809129266439    15.994914619570
         H            2.142352631239     0.905148755828    -2.123305266439     1.007825032230
         H            3.643825631239     1.135997755828    -2.435570266439     1.007825032230

  Charge       = 0
  Multiplicity = 1
  Basis Set: AUG-CC-PVDZ
    Blend: AUG-CC-PVDZ
  Basis Set: (AUG-CC-PVDZ AUX)
    Blend: AUG-CC-PVDZ-JKFIT

    Orbital Energies [Eh]
    ---------------------

    Doubly Occupied:

       1A    -19.274674     2A    -14.462547     3A    -10.351036
       4A    -10.308890     5A    -10.308860     6A    -10.302486
       7A    -10.302398     8A    -10.299294     9A     -1.117151
      10A     -1.023650    11A     -0.938054    12A     -0.845777
      13A     -0.828380    14A     -0.709954    15A     -0.696638
      16A     -0.629977    17A     -0.618515    18A     -0.596799
      19A     -0.571015    20A     -0.523380    21A     -0.515199
      22A     -0.502585    23A     -0.478834    24A     -0.474850
      25A     -0.441041    26A     -0.427978    27A     -0.403788
      28A     -0.398048    29A     -0.328992    30A     -0.283639

  @DF-RKS Final Energy:  -363.94429773030379

   => Energetics <=

    Nuclear Repulsion Energy =            330.8635770908941822
    One-Electron Energy =               -1147.7449373589108745
    Two-Electron Energy =                 488.2297785317813350
    DFT Exchange-Correlation Energy =     -35.2864846260183356
    Empirical Dispersion Energy =          -0.0062313680501320
    VV10 Nonlocal Energy =                  0.0000000000000000
    Total Energy =                       -363.9442977303038447

  Dipole Moment: [D]
     X:     1.7035      Y:    -0.0500      Z:     1.4531     Total:     2.2396

*** Psi4 exiting successfully. Buy a developer a beer!
