                               Psi4 1.3.2 release

  ==> Input File <==

--------------------------------------------------------------------------
molecule {
0 1
  N                  3.0895240     1.8402770    -1.3306660
  C                  1.7426930     1.5771090    -1.0570750
  C                  1.2802440     0.2555280    -1.2095530
  C                  1.0948130     2.3703140    -0.0903970
  C                  0.0609020    -0.1650430    -0.6395770
  C                 -0.1265590     1.9685150     0.4890010
  C                 -0.6624690     0.7040200     0.1938250
  H                  1.8479350    -0.4556110    -1.7954130
  H                  1.5164010     3.3224880     0.2044210
  H                 -0.3143900    -1.1821210    -0.8407630
  H                 -0.6510420     2.6453310     1.1836130
  H                 -1.6167990     0.3827750     0.6433610
  H                  3.5726000     2.5492910    -0.7659180
  H                  3.7061070     1.0467390    -1.5443670
--
0 1
  O                  2.8655106     0.4584786     1.2389522
  H                  2.2756916     0.0397906     1.8655572
  H                  3.7266046     0.5449996     1.6467882
}
memory 700MB
set_num_threads(8)
psi4_io.set_default_path("/home/daniele/PSI4_sctatch/Psi4-aniline")
set maxiter 500
set freeze_core True
set PROPERTIES_ORIGIN ["COM"]
e_dim= energy('wb97x-d/aug-cc-pVDZ',bsse_type='cp')

psi4.print_out('CP Energy = %10.6f' % (e_dim))
clean()
--------------------------------------------------------------------------

    Molecular point group: c1
  Charge       = 0
  Multiplicity = 1
  Basis Set: AUG-CC-PVDZ
    Blend: AUG-CC-PVDZ
  Basis Set: (AUG-CC-PVDZ AUX)
    Blend: AUG-CC-PVDZ-JKFIT
  @DF-RKS Final Energy:   -76.41944161320846
    Total Energy =                        -76.4194416132084484
    Molecular point group: c1
  Basis Set: AUG-CC-PVDZ
    Blend: AUG-CC-PVDZ
  Basis Set: (AUG-CC-PVDZ AUX)
    Blend: AUG-CC-PVDZ-JKFIT
  @DF-RKS Final Energy:   -76.41996935677753
    Total Energy =                        -76.4199693567775284
  Basis Set: AUG-CC-PVDZ
    Blend: AUG-CC-PVDZ
  Basis Set: (AUG-CC-PVDZ AUX)
    Blend: AUG-CC-PVDZ-JKFIT
  @DF-RKS Final Energy:  -287.52520493018631
    Total Energy =                       -287.5252049301863622
  Multiplicity = 1
  Basis Set: AUG-CC-PVDZ
    Blend: AUG-CC-PVDZ
  Basis Set: (AUG-CC-PVDZ AUX)
    Blend: AUG-CC-PVDZ-JKFIT
  @DF-RKS Final Energy:  -287.52476347169988
    Total Energy =                       -287.5247634716998846
    Molecular point group: c1

    Geometry (in Angstrom), charge = 0, multiplicity = 1:

       Center              X                  Y                   Z               Mass
    ------------   -----------------  -----------------  -----------------  -----------------
         N            1.793520338822     0.736529784106    -1.096757566717    14.003074004430
         C            0.446689338822     0.473361784106    -0.823166566717    12.000000000000
         C           -0.015759661178    -0.848219215894    -0.975644566717    12.000000000000
         C           -0.201190661178     1.266566784106     0.143511433283    12.000000000000
         C           -1.235101661178    -1.268790215894    -0.405668566717    12.000000000000
         C           -1.422562661178     0.864767784106     0.722909433283    12.000000000000
         C           -1.958472661178    -0.399727215894     0.427733433283    12.000000000000
         H            0.551931338822    -1.559358215894    -1.561504566717     1.007825032230
         H            0.220397338822     2.218740784106     0.438329433283     1.007825032230
         H           -1.610393661178    -2.285868215894    -0.606854566717     1.007825032230
         H           -1.947045661178     1.541583784106     1.417521433283     1.007825032230
         H           -2.912802661178    -0.720972215894     0.877269433283     1.007825032230
         H            2.276596338822     1.445543784106    -0.532009566717     1.007825032230
         H            2.410103338822    -0.057008215894    -1.310458566717     1.007825032230
         O            1.569506938822    -0.645268615894     1.472860633283    15.994914619570
         H            0.979687938822    -1.063956615894     2.099465633283     1.007825032230
         H            2.430600938822    -0.558747615894     1.880696633283     1.007825032230

  Charge       = 0
  Multiplicity = 1
  Basis Set: AUG-CC-PVDZ
    Blend: AUG-CC-PVDZ
  Basis Set: (AUG-CC-PVDZ AUX)
    Blend: AUG-CC-PVDZ-JKFIT

    Orbital Energies [Eh]
    ---------------------

    Doubly Occupied:

       1A    -19.272640     2A    -14.444246     3A    -10.331534
       4A    -10.295201     5A    -10.295053     6A    -10.287835
       7A    -10.287671     8A    -10.287501     9A     -1.117766
      10A     -1.005246    11A     -0.923474    12A     -0.831201
      13A     -0.812903    14A     -0.695064    15A     -0.681119
      16A     -0.630944    17A     -0.602953    18A     -0.579632
      19A     -0.557067    20A     -0.509340    21A     -0.499483
      22A     -0.495146    23A     -0.488451    24A     -0.440398
      25A     -0.428293    26A     -0.414371    27A     -0.405033
      28A     -0.381446    29A     -0.312408    30A     -0.268208

  @DF-RKS Final Energy:  -363.94142788452359

   => Energetics <=

    Nuclear Repulsion Energy =            360.2625566528115542
    One-Electron Energy =               -1207.2934394792994226
    Two-Electron Energy =                 518.3929133206809183
    DFT Exchange-Correlation Energy =     -35.2947687810699477
    Empirical Dispersion Energy =          -0.0086895976466880
    VV10 Nonlocal Energy =                  0.0000000000000000
    Total Energy =                       -363.9414278845235913

  Dipole Moment: [D]
     X:     2.2590      Y:    -0.7800      Z:     2.4158     Total:     3.3981

*** Psi4 exiting successfully. Buy a developer a beer!
