                               Psi4 1.3.2 release

  ==> Input File <==

--------------------------------------------------------------------------
molecule {
0 1
 C    0.729200    0.059500   -0.039000
 C   -0.730700   -0.043400    0.014500
 C    1.373400    0.973900   -0.847600
 C   -1.389800   -0.430400    1.164200
 C    1.531300   -0.765200    0.727400
 C   -1.525300    0.239700   -1.077400
 C    2.746300    1.071000   -0.898600
 C   -2.763400   -0.533900    1.237100
 C    2.913700   -0.683700    0.690700
 C   -2.899300    0.138400   -1.011900
 C    3.538800    0.237500   -0.124600
 C   -3.551300   -0.248900    0.140900
 H    0.806100    1.640600   -1.465300
 H   -0.754100   -0.653100    2.024300
 H    1.021300   -1.482200    1.361200
 H   -1.027500    0.547600   -1.998700
 H    3.268600    1.776500   -1.521700
 H   -3.263500   -0.843600    2.163800
 H    3.501900   -1.348900    1.307000
 H   -3.525900    0.361500   -1.871800
 H    4.630700    0.315100   -0.165600
 H   -4.630500   -0.328100    0.191100
}
set {
  geom_maxiter 400
  g_convergence GAU_LOOSE
  dynamic_level 1
}
memory 700MB
set_num_threads(3)
psi4_io.set_default_path("/home/daniele/PSI4_sctatch/Psi4-biphenyl")
for _ in range(1):
  try:
    set opt_coordinates both
    optimize('mp2/6-31G*')
    break
  except OptimizationConvergenceError:
    break
  else:
    try:
      set opt_coordinates cartesian
      optimize('mp2/6-31G*')
      break
    except OptimizationConvergenceError:
      pass
clean()
--------------------------------------------------------------------------

    Molecular point group: c1
  Charge       = 0
  Multiplicity = 1
  Basis Set: 6-31G*
    Blend: 6-31G*
  Basis Set: (6-31G* AUX)
    Blend: CC-PVDZ-JKFIT
  @DF-RHF Final Energy:  -460.24554529621003
    Total Energy =                       -460.2455452962100253
  Basis Set: (6-31G* AUX)
    Blend: CC-PVDZ-RI
    Molecular point group: c1
  Basis Set: 6-31G*
    Blend: 6-31G*
  Basis Set: (6-31G* AUX)
    Blend: CC-PVDZ-JKFIT
  Basis Set: (6-31G* AUX)
    Blend: CC-PVDZ-JKFIT
	 Reference Energy          =    -460.2455452962100253 [Eh]
	 Singles Energy            =      -0.0000000000000000 [Eh]
	 Same-Spin Energy          =      -0.4235725607500951 [Eh]
	 Opposite-Spin Energy      =      -1.1493536603817605 [Eh]
	 Correlation Energy        =      -1.5729262211318555 [Eh]
	 Total Energy              =    -461.8184715173418908 [Eh]
	 SCS Total Energy          =    -461.7659605422514915 [Eh]
  @DF-RHF Final Energy:  -460.24930372578262
    Total Energy =                       -460.2493037257826245
  @DF-RHF Final Energy:  -460.25027882416452
    Total Energy =                       -460.2502788241645248
  Charge       = 0
  Multiplicity = 1
  Basis Set: 6-31G*
    Blend: 6-31G*
  Basis Set: (6-31G* AUX)
    Blend: CC-PVDZ-JKFIT

    Orbital Energies [Eh]
    ---------------------

    Doubly Occupied:

       1A    -11.242371     2A    -11.241625     3A    -11.235496
       4A    -11.235485     5A    -11.235176     6A    -11.235162
       7A    -11.233412     8A    -11.233410     9A    -11.233041
      10A    -11.233032    11A    -11.232866    12A    -11.232861
      13A     -1.164198    14A     -1.134921    15A     -1.048716
      16A     -1.014147    17A     -1.005960    18A     -0.976599
      19A     -0.846645    20A     -0.836191    21A     -0.806093
      22A     -0.783902    23A     -0.712340    24A     -0.676234
      25A     -0.649651    26A     -0.632509    27A     -0.611597
      28A     -0.602019    29A     -0.585728    30A     -0.579276
      31A     -0.578164    32A     -0.516261    33A     -0.508603
      34A     -0.498722    35A     -0.484312    36A     -0.479169
      37A     -0.478438    38A     -0.359624    39A     -0.332733
      40A     -0.330980    41A     -0.296486

  @DF-RHF Final Energy:  -460.25085387760851

   => Energetics <=

    Nuclear Repulsion Energy =            600.0294533540291013
    One-Electron Energy =               -1811.8523055969531015
    Two-Electron Energy =                 751.5719983653154941
    Total Energy =                       -460.2508538776085061

  Dipole Moment: [D]
     X:    -0.0007      Y:     0.0010      Z:    -0.0018     Total:     0.0022

  Basis Set: (6-31G* AUX)
    Blend: CC-PVDZ-RI
    Molecular point group: c1
  Basis Set: 6-31G*
    Blend: 6-31G*
  Basis Set: (6-31G* AUX)
    Blend: CC-PVDZ-JKFIT
  Basis Set: (6-31G* AUX)
    Blend: CC-PVDZ-JKFIT
	 Reference Energy          =    -460.2508538776085061 [Eh]
	 Singles Energy            =      -0.0000000000000000 [Eh]
	 Same-Spin Energy          =      -0.4234116489505877 [Eh]
	 Opposite-Spin Energy      =      -1.1530134091736863 [Eh]
	 Correlation Energy        =      -1.5764250581242740 [Eh]
	 Total Energy              =    -461.8272789357328065 [Eh]

	 ================> DF-SCS-MP2 Energies <==================
	-----------------------------------------------------------
	 SCS Same-Spin Scale       =       0.3333333333333333 [-]
	 SCS Opposite-Spin Scale   =       1.2000000000000000 [-]
	 SCS Same-Spin Energy      =      -0.1411372163168625 [Eh]
	 SCS Opposite-Spin Energy  =      -1.3836160910084236 [Eh]
	 SCS Correlation Energy    =      -1.5247533073252861 [Eh]
	 SCS Total Energy          =    -461.7756071849337900 [Eh]
	-----------------------------------------------------------

  -Total Gradient:
     Atom            X                  Y                   Z
    ------   -----------------  -----------------  -----------------
       1       -0.000961553626    -0.000070995681     0.000203558744
       2        0.000935538106    -0.000061734415    -0.000054951337
       3        0.000091840864     0.000024640116    -0.000166341617
       4        0.000244494895    -0.000128313455     0.000222020240
       5       -0.000189037962     0.000004280276     0.000126144629
       6        0.000143940955     0.000134229887    -0.000079385193
       7        0.000030278649    -0.000089338580     0.000126532235
       8       -0.000145938704     0.000049544419     0.000108611180
       9        0.000025343595    -0.000008873999    -0.000095737787
      10       -0.000137363928    -0.000034939062    -0.000160786609
      11        0.000379958321    -0.000057195744     0.000103119794
      12       -0.000163935161    -0.000074958315     0.000123052791
      13       -0.000199530688     0.000171864033    -0.000092902882
      14       -0.000170150429     0.000135373323    -0.000067556495
      15        0.000115917713    -0.000056417250    -0.000120061361
      16       -0.000016070443     0.000000526076    -0.000065926212
      17       -0.000144448549     0.000013919497    -0.000097356312
      18        0.000132815342    -0.000030571257    -0.000075095108
      19       -0.000041889835    -0.000020637952     0.000073242335
      20        0.000152532895     0.000069160142     0.000023777902
      21       -0.000067316921     0.000011901724    -0.000024979557
      22       -0.000015425091     0.000018536216    -0.000008979378

  **** Optimization is complete! (in 4 steps) ****
    Final optimized geometry and variables:
    Molecular point group: c1

    Geometry (in Angstrom), charge = 0, multiplicity = 1:

    C            0.735094392323     0.048975358468    -0.025943690524
    C           -0.735032975173    -0.050082502964     0.028219525646
    C            1.355066139905     1.075598389761    -0.752865080535
    C           -1.389955100793    -0.306942410704     1.241269817311
    C            1.539572988733    -0.882445007665     0.645911349674
    C           -1.504580318863     0.113187542113    -1.132643414471
    C            2.744487422104     1.166924552388    -0.806926609084
    C           -2.779423171373    -0.401848331930     1.290941620019
    C            2.928992771170    -0.787250413848     0.595175212230
    C           -2.894248540924     0.022960630425    -1.081130369530
    C            3.536528914712     0.237146035560    -0.131872740339
    C           -3.536392343513    -0.236539375155     0.130424164730
    H            0.739851980834     1.819575591628    -1.254983038226
    H           -0.805267327353    -0.404087822605     2.153145033402
    H            1.070087464849    -1.701065460252     1.186804807639
    H           -1.005322998136     0.285495284577    -2.083687798109
    H            3.209408893681     1.972412587406    -1.370218960355
    H           -3.272699762567    -0.595396732996     2.240188518460
    H            3.538912137899    -1.521025250975     1.116605169723
    H           -3.476139676652     0.146081975260    -1.991168723186
    H            4.620129629686     0.310137131207    -0.173279336690
    H           -4.620272216464    -0.308370299295     0.169929061740

*** Psi4 exiting successfully. Buy a developer a beer!
