                               Psi4 1.3.2 release

  ==> Input File <==

--------------------------------------------------------------------------
molecule {
0 1
C 0.735094392323 0.048975358468 -0.025943690524
C -0.735032975173 -0.050082502964 0.028219525646
C 1.355066139905 1.075598389761 -0.752865080535
C -1.389955100793 -0.306942410704 1.241269817311
C 1.539572988733 -0.882445007665 0.645911349674
C -1.504580318863 0.113187542113 -1.132643414471
C 2.744487422104 1.166924552388 -0.806926609084
C -2.779423171373 -0.401848331930 1.290941620019
C 2.928992771170 -0.787250413848 0.595175212230
C -2.894248540924 0.022960630425 -1.081130369530
C 3.536528914712 0.237146035560 -0.131872740339
C -3.536392343513 -0.236539375155 0.130424164730
H 0.739851980834 1.819575591628 -1.254983038226
H -0.805267327353 -0.404087822605 2.153145033402
H 1.070087464849 -1.701065460252 1.186804807639
H -1.005322998136 0.285495284577 -2.083687798109
H 3.209408893681 1.972412587406 -1.370218960355
H -3.272699762567 -0.595396732996 2.240188518460
H 3.538912137899 -1.521025250975 1.116605169723
H -3.476139676652 0.146081975260 -1.991168723186
H 4.620129629686 0.310137131207 -0.173279336690
H -4.620272216464 -0.308370299295 0.169929061740
}
memory 700MB
set_num_threads(3)
psi4_io.set_default_path("/home/daniele/PSI4_sctatch/Psi4-biphenyl")
set freeze_core True
set PROPERTIES_ORIGIN ["COM"]
set cubeprop_tasks ['esp']
E, wfn = energy('mp2/6-311G**',properties=['dipole'],return_wfn=True)
cubeprop(wfn)
fchk(wfn, "biphenyl-dma.fchk")
clean()
--------------------------------------------------------------------------

    Molecular point group: c1

    Geometry (in Angstrom), charge = 0, multiplicity = 1:

       Center              X                  Y                   Z               Mass
    ------------   -----------------  -----------------  -----------------  -----------------
         C            0.735094392323     0.048975358468    -0.025943690524    12.000000000000
         C           -0.735032975173    -0.050082502964     0.028219525646    12.000000000000
         C            1.355066139905     1.075598389761    -0.752865080535    12.000000000000
         C           -1.389955100793    -0.306942410704     1.241269817311    12.000000000000
         C            1.539572988733    -0.882445007665     0.645911349674    12.000000000000
         C           -1.504580318863     0.113187542113    -1.132643414471    12.000000000000
         C            2.744487422104     1.166924552388    -0.806926609084    12.000000000000
         C           -2.779423171373    -0.401848331930     1.290941620019    12.000000000000
         C            2.928992771170    -0.787250413848     0.595175212230    12.000000000000
         C           -2.894248540924     0.022960630425    -1.081130369530    12.000000000000
         C            3.536528914712     0.237146035560    -0.131872740339    12.000000000000
         C           -3.536392343513    -0.236539375155     0.130424164730    12.000000000000
         H            0.739851980834     1.819575591628    -1.254983038226     1.007825032230
         H           -0.805267327353    -0.404087822605     2.153145033402     1.007825032230
         H            1.070087464849    -1.701065460252     1.186804807639     1.007825032230
         H           -1.005322998136     0.285495284577    -2.083687798109     1.007825032230
         H            3.209408893681     1.972412587406    -1.370218960355     1.007825032230
         H           -3.272699762567    -0.595396732996     2.240188518460     1.007825032230
         H            3.538912137899    -1.521025250975     1.116605169723     1.007825032230
         H           -3.476139676652     0.146081975260    -1.991168723186     1.007825032230
         H            4.620129629686     0.310137131207    -0.173279336690     1.007825032230
         H           -4.620272216464    -0.308370299295     0.169929061740     1.007825032230

  Charge       = 0
  Multiplicity = 1
  Basis Set: 6-311G**
    Blend: 6-311G**
  Basis Set: (6-311G** AUX)
    Blend: CC-PVTZ-JKFIT

    Orbital Energies [Eh]
    ---------------------

    Doubly Occupied:

       1A    -11.245208     2A    -11.244441     3A    -11.236924
       4A    -11.236913     5A    -11.236639     6A    -11.236625
       7A    -11.234761     8A    -11.234758     9A    -11.234591
      10A    -11.234583    11A    -11.234264    12A    -11.234262
      13A     -1.169450    14A     -1.140143    15A     -1.053751
      16A     -1.018923    17A     -1.010752    18A     -0.981553
      19A     -0.851537    20A     -0.840993    21A     -0.810776
      22A     -0.788731    23A     -0.717452    24A     -0.680755
      25A     -0.653153    26A     -0.638662    27A     -0.615426
      28A     -0.608090    29A     -0.590196    30A     -0.584218
      31A     -0.582670    32A     -0.520668    33A     -0.513631
      34A     -0.503022    35A     -0.489302    36A     -0.483662
      37A     -0.483585    38A     -0.364848    39A     -0.337884
      40A     -0.336077    41A     -0.301723

  @DF-RHF Final Energy:  -460.34679268995507

   => Energetics <=

    Nuclear Repulsion Energy =            600.0294533540087514
    One-Electron Energy =               -1811.7212946824888604
    Two-Electron Energy =                 751.3450486385250997
    Total Energy =                       -460.3467926899551230

  Dipole Moment: [D]
     X:    -0.0008      Y:     0.0012      Z:    -0.0023     Total:     0.0027

  Basis Set: (6-311G** AUX)
    Blend: CC-PVTZ-RI
	 Reference Energy          =    -460.3467926899550662 [Eh]
	 Singles Energy            =      -0.0000000000000000 [Eh]
	 Same-Spin Energy          =      -0.4386075655699487 [Eh]
	 Opposite-Spin Energy      =      -1.2049926935309943 [Eh]
	 Correlation Energy        =      -1.6436002591009431 [Eh]
	 Total Energy              =    -461.9903929490560017 [Eh]

	 ================> DF-SCS-MP2 Energies <==================
	-----------------------------------------------------------
	 SCS Same-Spin Scale       =       0.3333333333333333 [-]
	 SCS Opposite-Spin Scale   =       1.2000000000000000 [-]
	 SCS Same-Spin Energy      =      -0.1462025218566496 [Eh]
	 SCS Opposite-Spin Energy  =      -1.4459912322371931 [Eh]
	 SCS Correlation Energy    =      -1.5921937540938427 [Eh]
	 SCS Total Energy          =    -461.9389864440489077 [Eh]
	-----------------------------------------------------------

  Basis Set: 6-311G**
    Blend: 6-311G**
*** Psi4 exiting successfully. Buy a developer a beer!
