                               Psi4 1.3.2 release

  ==> Input File <==

--------------------------------------------------------------------------
molecule {
0 1
C 0.735094392323 0.048975358468 -0.025943690524
C -0.735032975173 -0.050082502964 0.028219525646
C 1.355066139905 1.075598389761 -0.752865080535
C -1.389955100793 -0.306942410704 1.241269817311
C 1.539572988733 -0.882445007665 0.645911349674
C -1.504580318863 0.113187542113 -1.132643414471
C 2.744487422104 1.166924552388 -0.806926609084
C -2.779423171373 -0.401848331930 1.290941620019
C 2.928992771170 -0.787250413848 0.595175212230
C -2.894248540924 0.022960630425 -1.081130369530
C 3.536528914712 0.237146035560 -0.131872740339
C -3.536392343513 -0.236539375155 0.130424164730
H 0.739851980834 1.819575591628 -1.254983038226
H -0.805267327353 -0.404087822605 2.153145033402
H 1.070087464849 -1.701065460252 1.186804807639
H -1.005322998136 0.285495284577 -2.083687798109
H 3.209408893681 1.972412587406 -1.370218960355
H -3.272699762567 -0.595396732996 2.240188518460
H 3.538912137899 -1.521025250975 1.116605169723
H -3.476139676652 0.146081975260 -1.991168723186
H 4.620129629686 0.310137131207 -0.173279336690
H -4.620272216464 -0.308370299295 0.169929061740
}
memory 700MB
set_num_threads(3)
psi4_io.set_default_path("/home/daniele/PSI4_sctatch/Psi4-biphenyl")
set maxiter 500
set freeze_core True
set PROPERTIES_ORIGIN ["COM"]
set cubeprop_tasks ['esp']
E, wfn = properties('mp2/aug-cc-pVTZ',properties=['dipole'],return_wfn=True)
cubeprop(wfn)
fchk(wfn, "biphenyl-esp.fchk")
oeprop(wfn,"GRID_ESP","WIBERG_LOWDIN_INDICES","MULLIKEN_CHARGES")
clean()
--------------------------------------------------------------------------

    Molecular point group: c1
  Charge       = 0
  Multiplicity = 1
  Basis Set: AUG-CC-PVTZ
    Blend: AUG-CC-PVTZ
  Basis Set: (AUG-CC-PVTZ AUX)
    Blend: AUG-CC-PVTZ-JKFIT

    Orbital Energies [Eh]
    ---------------------

    Doubly Occupied:

       1A    -11.246634     2A    -11.245864     3A    -11.238522
       4A    -11.238512     5A    -11.238248     6A    -11.238234
       7A    -11.236242     8A    -11.236239     9A    -11.236090
      10A    -11.236083    11A    -11.235763    12A    -11.235762
      13A     -1.170583    14A     -1.141233    15A     -1.054772
      16A     -1.019932    17A     -1.011748    18A     -0.982457
      19A     -0.852681    20A     -0.842078    21A     -0.811926
      22A     -0.789754    23A     -0.718298    24A     -0.681608
      25A     -0.654196    26A     -0.639869    27A     -0.616347
      28A     -0.609498    29A     -0.590982    30A     -0.584885
      31A     -0.583434    32A     -0.521689    33A     -0.515824
      34A     -0.504295    35A     -0.491343    36A     -0.484815
      37A     -0.484743    38A     -0.366776    39A     -0.339769
      40A     -0.337907    41A     -0.303780

  @DF-RHF Final Energy:  -460.40089567941163

   => Energetics <=

    Nuclear Repulsion Energy =            600.0294533540087514
    One-Electron Energy =               -1811.7218674247556010
    Two-Electron Energy =                 751.2915183913353303
    Total Energy =                       -460.4008956794116330
  Basis Set: (AUG-CC-PVTZ AUX)
    Blend: AUG-CC-PVTZ-RI
    Molecular point group: c1

    Geometry (in Angstrom), charge = 0, multiplicity = 1:

       Center              X                  Y                   Z               Mass
    ------------   -----------------  -----------------  -----------------  -----------------
         C            0.735094392323     0.048975358468    -0.025943690524    12.000000000000
         C           -0.735032975173    -0.050082502964     0.028219525646    12.000000000000
         C            1.355066139905     1.075598389761    -0.752865080535    12.000000000000
         C           -1.389955100793    -0.306942410704     1.241269817311    12.000000000000
         C            1.539572988733    -0.882445007665     0.645911349674    12.000000000000
         C           -1.504580318863     0.113187542113    -1.132643414471    12.000000000000
         C            2.744487422104     1.166924552388    -0.806926609084    12.000000000000
         C           -2.779423171373    -0.401848331930     1.290941620019    12.000000000000
         C            2.928992771170    -0.787250413848     0.595175212230    12.000000000000
         C           -2.894248540924     0.022960630425    -1.081130369530    12.000000000000
         C            3.536528914712     0.237146035560    -0.131872740339    12.000000000000
         C           -3.536392343513    -0.236539375155     0.130424164730    12.000000000000
         H            0.739851980834     1.819575591628    -1.254983038226     1.007825032230
         H           -0.805267327353    -0.404087822605     2.153145033402     1.007825032230
         H            1.070087464849    -1.701065460252     1.186804807639     1.007825032230
         H           -1.005322998136     0.285495284577    -2.083687798109     1.007825032230
         H            3.209408893681     1.972412587406    -1.370218960355     1.007825032230
         H           -3.272699762567    -0.595396732996     2.240188518460     1.007825032230
         H            3.538912137899    -1.521025250975     1.116605169723     1.007825032230
         H           -3.476139676652     0.146081975260    -1.991168723186     1.007825032230
         H            4.620129629686     0.310137131207    -0.173279336690     1.007825032230
         H           -4.620272216464    -0.308370299295     0.169929061740     1.007825032230

  Basis Set: AUG-CC-PVTZ
    Blend: AUG-CC-PVTZ
  Basis Set: (AUG-CC-PVTZ AUX)
    Blend: AUG-CC-PVTZ-JKFIT
	 Reference Energy          =    -460.4008956794116330 [Eh]
	 Singles Energy            =      -0.0000000000000000 [Eh]
	 Same-Spin Energy          =      -0.4900689563411331 [Eh]
	 Opposite-Spin Energy      =      -1.4283125322732779 [Eh]
	 Correlation Energy        =      -1.9183814886144110 [Eh]
	 Total Energy              =    -462.3192771680260194 [Eh]

	 ================> DF-SCS-MP2 Energies <==================
	-----------------------------------------------------------
	 SCS Same-Spin Scale       =       0.3333333333333333 [-]
	 SCS Opposite-Spin Scale   =       1.2000000000000000 [-]
	 SCS Same-Spin Energy      =      -0.1633563187803777 [Eh]
	 SCS Opposite-Spin Energy  =      -1.7139750387279336 [Eh]
	 SCS Correlation Energy    =      -1.8773313575083113 [Eh]
	 SCS Total Energy          =    -462.2782270369199296 [Eh]
	-----------------------------------------------------------

  Dipole Moment: [D]
     X:    -0.0006      Y:     0.0011      Z:    -0.0020     Total:     0.0024

  Basis Set: AUG-CC-PVTZ
    Blend: AUG-CC-PVTZ

  Mulliken Charges: (a.u.)
   Center  Symbol    Alpha    Beta     Spin     Total
       1     C     2.09972  2.09972  0.00000  1.80056
       2     C     2.10028  2.10028  0.00000  1.79943
       3     C     3.50678  3.50678  0.00000 -1.01357
       4     C     3.50686  3.50686  0.00000 -1.01372
       5     C     3.50667  3.50667  0.00000 -1.01333
       6     C     3.50696  3.50696  0.00000 -1.01392
       7     C     3.33041  3.33041  0.00000 -0.66083
       8     C     3.33080  3.33080  0.00000 -0.66159
       9     C     3.33052  3.33052  0.00000 -0.66104
      10     C     3.33108  3.33108  0.00000 -0.66216
      11     C     3.05440  3.05440  0.00000 -0.10880
      12     C     3.05405  3.05405  0.00000 -0.10811
      13     H     0.42814  0.42814  0.00000  0.14372
      14     H     0.42777  0.42777  0.00000  0.14445
      15     H     0.42739  0.42739  0.00000  0.14522
      16     H     0.42884  0.42884  0.00000  0.14232
      17     H     0.29491  0.29491  0.00000  0.41018
      18     H     0.29384  0.29384  0.00000  0.41231
      19     H     0.29449  0.29449  0.00000  0.41102
      20     H     0.29403  0.29403  0.00000  0.41194
      21     H     0.22554  0.22554  0.00000  0.54893
      22     H     0.22650  0.22650  0.00000  0.54699

   Total alpha = 41.00000, Total beta = 41.00000, Total charge =  0.00000

*** Psi4 exiting successfully. Buy a developer a beer!
