                               Psi4 1.3.2 release

  ==> Input File <==

--------------------------------------------------------------------------
molecule {
0 1
 O   -1.936029   -0.548706   -0.710606
 C   -0.003909    0.653618    0.033223
 C    1.105382   -0.348347    0.365332
 C   -1.395170    0.173951    0.422267
 C    2.495394    0.154394   -0.029860
 H    0.207853    1.594404    0.553273
 H   -0.016609    0.875310   -1.035949
 H    0.891451   -1.293389   -0.141349
 H    1.086527   -0.556238    1.440586
 H   -1.342882   -0.469476    1.308999
 H   -2.039885    1.029813    0.654923
 H    2.546994    0.347880   -1.103650
 H    3.267715   -0.576315    0.217089
 H    2.735883    1.086146    0.488381
 H   -2.826102   -0.874127   -0.522334
}
memory 700MB
set_num_threads(8)
psi4_io.set_default_path("/home/daniele/PSI4_sctatch/Psi4-1butanol_3D")
set freeze_core True
E, wfn = energy('wb97x-d/6-311+G*',return_wfn=True)
oeprop(wfn,"WIBERG_LOWDIN_INDICES")
clean()
--------------------------------------------------------------------------

    Molecular point group: c1

    Geometry (in Angstrom), charge = 0, multiplicity = 1:

       Center              X                  Y                   Z               Mass
    ------------   -----------------  -----------------  -----------------  -----------------
         O           -1.936028847907    -0.548706037515    -0.710605797757    15.994914619570
         C           -0.003908847907     0.653617962485     0.033223202243    12.000000000000
         C            1.105382152093    -0.348347037515     0.365332202243    12.000000000000
         C           -1.395169847907     0.173950962485     0.422267202243    12.000000000000
         C            2.495394152093     0.154393962485    -0.029859797757    12.000000000000
         H            0.207853152093     1.594403962485     0.553273202243     1.007825032230
         H           -0.016608847907     0.875309962485    -1.035948797757     1.007825032230
         H            0.891451152093    -1.293389037515    -0.141348797757     1.007825032230
         H            1.086527152093    -0.556238037515     1.440586202243     1.007825032230
         H           -1.342881847907    -0.469476037515     1.308999202243     1.007825032230
         H           -2.039884847907     1.029812962485     0.654923202243     1.007825032230
         H            2.546994152093     0.347879962485    -1.103649797757     1.007825032230
         H            3.267715152093    -0.576315037515     0.217089202243     1.007825032230
         H            2.735883152093     1.086145962485     0.488381202243     1.007825032230
         H           -2.826101847907    -0.874127037515    -0.522333797757     1.007825032230

  Charge       = 0
  Multiplicity = 1
  Basis Set: 6-311+G*
    Blend: 6-311+G*
  Basis Set: (6-311+G* AUX)
    Blend: HEAVY-AUG-CC-PVTZ-JKFIT

    Orbital Energies [Eh]
    ---------------------

    Doubly Occupied:

       1A    -19.244810     2A    -10.328269     3A    -10.273665
       4A    -10.272961     5A    -10.265336     6A     -1.116209
       7A     -0.893586     8A     -0.819695     9A     -0.723954
      10A     -0.672171    11A     -0.610973    12A     -0.543412
      13A     -0.538695    14A     -0.516936    15A     -0.471640
      16A     -0.461080    17A     -0.441899    18A     -0.415580
      19A     -0.409641    20A     -0.403681    21A     -0.357986

  @DF-RKS Final Energy:  -233.64480939936044

   => Energetics <=

    Nuclear Repulsion Energy =            186.2182480494550134
    One-Electron Energy =                -684.4457809989089583
    Two-Electron Energy =                 287.8296870290224660
    DFT Exchange-Correlation Energy =     -23.2400094167144005
    Empirical Dispersion Energy =          -0.0069540622145619
    VV10 Nonlocal Energy =                  0.0000000000000000
    Total Energy =                       -233.6448093993604118

  Dipole Moment: [D]
     X:    -0.8255      Y:     0.2417      Z:     1.5338     Total:     1.7586

*** Psi4 exiting successfully. Buy a developer a beer!
