                               Psi4 1.3.2 release

  ==> Input File <==

--------------------------------------------------------------------------
molecule {
0 1
 O   -2.288857    0.354362   -0.592822
 C    0.068533    0.207732   -0.231796
 C    1.225414   -0.406382    0.561108
 C   -1.288419   -0.293579    0.225115
 C    2.590717    0.107446    0.097514
 H    0.085131    1.296432   -0.135404
 H    0.181247   -0.019287   -1.295091
 H    1.195097   -1.496964    0.465496
 H    1.095809   -0.185039    1.625877
 H   -1.341713   -1.383610    0.111221
 H   -1.438316   -0.051522    1.284804
 H    2.756949   -0.128789   -0.955825
 H    3.401585   -0.339998    0.675109
 H    2.655496    1.191992    0.209515
 H   -3.178530    0.074352   -0.339744
}
memory 700MB
set_num_threads(8)
psi4_io.set_default_path("/home/daniele/PSI4_sctatch/Psi4-1butanol_3D")
set freeze_core True
E, wfn = energy('wb97x-d/6-311+G*',return_wfn=True)
oeprop(wfn,"WIBERG_LOWDIN_INDICES")
clean()
--------------------------------------------------------------------------

    Molecular point group: c1

    Geometry (in Angstrom), charge = 0, multiplicity = 1:

       Center              X                  Y                   Z               Mass
    ------------   -----------------  -----------------  -----------------  -----------------
         O           -2.288856698824     0.354361947854    -0.592821897396    15.994914619570
         C            0.068533301176     0.207731947854    -0.231795897396    12.000000000000
         C            1.225414301176    -0.406382052146     0.561108102604    12.000000000000
         C           -1.288418698824    -0.293579052146     0.225115102604    12.000000000000
         C            2.590717301176     0.107445947854     0.097514102604    12.000000000000
         H            0.085131301176     1.296431947854    -0.135403897396     1.007825032230
         H            0.181247301176    -0.019287052146    -1.295090897396     1.007825032230
         H            1.195097301176    -1.496964052146     0.465496102604     1.007825032230
         H            1.095809301176    -0.185039052146     1.625877102604     1.007825032230
         H           -1.341712698824    -1.383610052146     0.111221102604     1.007825032230
         H           -1.438315698824    -0.051522052146     1.284804102604     1.007825032230
         H            2.756949301176    -0.128789052146    -0.955824897396     1.007825032230
         H            3.401585301176    -0.339998052146     0.675109102604     1.007825032230
         H            2.655496301176     1.191991947854     0.209515102604     1.007825032230
         H           -3.178529698824     0.074351947854    -0.339743897396     1.007825032230

  Charge       = 0
  Multiplicity = 1
  Basis Set: 6-311+G*
    Blend: 6-311+G*
  Basis Set: (6-311+G* AUX)
    Blend: HEAVY-AUG-CC-PVTZ-JKFIT

    Orbital Energies [Eh]
    ---------------------

    Doubly Occupied:

       1A    -19.244953     2A    -10.327976     3A    -10.279854
       4A    -10.273104     5A    -10.268867     6A     -1.116633
       7A     -0.897588     8A     -0.821154     9A     -0.723995
      10A     -0.676801    11A     -0.598814    12A     -0.574025
      13A     -0.522395    14A     -0.519153    15A     -0.485813
      16A     -0.451409    17A     -0.440617    18A     -0.419659
      19A     -0.410635    20A     -0.407046    21A     -0.360528

  @DF-RKS Final Energy:  -233.64693548917035

   => Energetics <=

    Nuclear Repulsion Energy =            184.5074027841841939
    One-Electron Energy =                -680.9496513196262413
    Two-Electron Energy =                 286.0433587483952920
    DFT Exchange-Correlation Energy =     -23.2410920758651898
    Empirical Dispersion Energy =          -0.0069536262584227
    VV10 Nonlocal Energy =                  0.0000000000000000
    Total Energy =                       -233.6469354891703745

  Dipole Moment: [D]
     X:    -0.2300      Y:    -1.1918      Z:     1.3493     Total:     1.8149

*** Psi4 exiting successfully. Buy a developer a beer!
