                               Psi4 1.3.2 release

  ==> Input File <==

--------------------------------------------------------------------------
molecule {
0 1
 O   -2.394411    0.077453   -0.530798
 C    0.055113    0.219050   -0.229601
 C    1.269140   -0.304116    0.542457
 C   -1.256348   -0.416317    0.214206
 C    2.579206    0.345087    0.090092
 H   -0.013351    1.306349   -0.093981
 H    0.187357    0.037829   -1.300525
 H    1.335478   -1.389221    0.415954
 H    1.121471   -0.125132    1.612093
 H   -1.235869   -1.493682    0.055208
 H   -1.407166   -0.231588    1.283637
 H    2.762745    0.153009   -0.969268
 H    3.428779   -0.043453    0.653760
 H    2.547803    1.427630    0.232976
 H   -2.244900    0.990014   -0.814055
}
memory 700MB
set_num_threads(8)
psi4_io.set_default_path("/home/daniele/PSI4_sctatch/Psi4-1butanol_3D")
set freeze_core True
E, wfn = energy('wb97x-d/6-311+G*',return_wfn=True)
oeprop(wfn,"WIBERG_LOWDIN_INDICES")
clean()
--------------------------------------------------------------------------

    Molecular point group: c1

    Geometry (in Angstrom), charge = 0, multiplicity = 1:

       Center              X                  Y                   Z               Mass
    ------------   -----------------  -----------------  -----------------  -----------------
         O           -2.394411054879     0.077452991559    -0.530797952366    15.994914619570
         C            0.055112945121     0.219049991559    -0.229600952366    12.000000000000
         C            1.269139945121    -0.304116008441     0.542457047634    12.000000000000
         C           -1.256348054879    -0.416317008441     0.214206047634    12.000000000000
         C            2.579205945121     0.345086991559     0.090092047634    12.000000000000
         H           -0.013351054879     1.306348991559    -0.093980952366     1.007825032230
         H            0.187356945121     0.037828991559    -1.300524952366     1.007825032230
         H            1.335477945121    -1.389221008441     0.415954047634     1.007825032230
         H            1.121470945121    -0.125132008441     1.612093047634     1.007825032230
         H           -1.235869054879    -1.493682008441     0.055208047634     1.007825032230
         H           -1.407166054879    -0.231588008441     1.283637047634     1.007825032230
         H            2.762744945121     0.153008991559    -0.969267952366     1.007825032230
         H            3.428778945121    -0.043453008441     0.653760047634     1.007825032230
         H            2.547802945121     1.427629991559     0.232976047634     1.007825032230
         H           -2.244900054879     0.990013991559    -0.814054952366     1.007825032230

  Charge       = 0
  Multiplicity = 1
  Basis Set: 6-311+G*
    Blend: 6-311+G*
  Basis Set: (6-311+G* AUX)
    Blend: HEAVY-AUG-CC-PVTZ-JKFIT

    Orbital Energies [Eh]
    ---------------------

    Doubly Occupied:

       1A    -19.242763     2A    -10.327346     3A    -10.286816
       4A    -10.285577     5A    -10.275114     6A     -1.115063
       7A     -0.903879     8A     -0.823448     9A     -0.734669
      10A     -0.689445    11A     -0.589679    12A     -0.570397
      13A     -0.532082    14A     -0.524132    15A     -0.478039
      16A     -0.473407    17A     -0.457526    18A     -0.427864
      19A     -0.419460    20A     -0.400606    21A     -0.357330

  @DF-RKS Final Energy:  -233.64590035148120

   => Energetics <=

    Nuclear Repulsion Energy =            184.3153110772001639
    One-Electron Energy =                -680.3755852397886201
    Two-Electron Energy =                 285.6628181882818467
    DFT Exchange-Correlation Energy =     -23.2413152507718408
    Empirical Dispersion Energy =          -0.0071291264027037
    VV10 Nonlocal Energy =                  0.0000000000000000
    Total Energy =                       -233.6459003514811741

  Dipole Moment: [D]
     X:     1.9815      Y:     0.9319      Z:     0.4127     Total:     2.2282

*** Psi4 exiting successfully. Buy a developer a beer!
