                               Psi4 1.3.2 release

  ==> Input File <==

--------------------------------------------------------------------------
molecule {
0 1
 O   -2.207243    0.202008   -0.508432
 C   -0.093999    0.669533    0.535841
 C    1.375978    0.287196    0.890215
 C   -0.905912   -0.350754   -0.298183
 C    2.120151   -0.606699   -0.125387
 H   -0.647613    0.894701    1.456848
 H   -0.080273    1.607513   -0.035900
 H    1.369775   -0.241044    1.853322
 H    1.955945    1.202164    1.069275
 H   -0.412379   -0.544376   -1.258419
 H   -0.968436   -1.307809    0.234804
 H    1.615421   -1.567996   -0.267078
 H    3.138968   -0.815265    0.218284
 H    2.193871   -0.113410   -1.100531
 H   -2.729179   -0.436854   -1.029238
}
set optking {
  frozen_dihedral = ("
    4 2 3 5
    2 4 1 15
    3 2 4 1
    12 5 3 2
  ")
}
set {
  geom_maxiter 400
  g_convergence GAU_LOOSE
  dynamic_level 1
}
memory 700MB
set_num_threads(8)
psi4_io.set_default_path("/home/daniele/PSI4_sctatch/Psi4-1butanol_3D")
for _ in range(1):
  try:
    set opt_coordinates both
    optimize('wb97x-d/6-311G')
    break
  except OptimizationConvergenceError:
    break
  else:
    try:
      set opt_coordinates cartesian
      optimize('wb97x-d/6-311G')
      break
    except OptimizationConvergenceError:
      pass
clean()
--------------------------------------------------------------------------

    Molecular point group: c1
  Charge       = 0
  Multiplicity = 1
  Basis Set: 6-311G
    Blend: 6-311G
  Basis Set: (6-311G AUX)
    Blend: CC-PVTZ-JKFIT
  @DF-RKS Final Energy:  -233.57657651445712
    Total Energy =                       -233.5765765144570878
    Molecular point group: c1
  Basis Set: 6-311G
    Blend: 6-311G
  Basis Set: (6-311G AUX)
    Blend: CC-PVTZ-JKFIT
  Basis Set: 6-311G
    Blend: 6-311G
  Basis Set: (6-311G AUX)
    Blend: CC-PVTZ-JKFIT
  @DF-RKS Final Energy:  -233.57814106778139
    Total Energy =                       -233.5781410677813881
  Basis Set: 6-311G
    Blend: 6-311G
  Basis Set: (6-311G AUX)
    Blend: CC-PVTZ-JKFIT
  Charge       = 0
  Multiplicity = 1
  Basis Set: 6-311G
    Blend: 6-311G
  Basis Set: (6-311G AUX)
    Blend: CC-PVTZ-JKFIT

    Orbital Energies [Eh]
    ---------------------

    Doubly Occupied:

       1A    -19.234537     2A    -10.328877     3A    -10.280929
       4A    -10.273511     5A    -10.272275     6A     -1.118940
       7A     -0.897373     8A     -0.818906     9A     -0.743083
      10A     -0.662520    11A     -0.601050    12A     -0.570121
      13A     -0.529037    14A     -0.509335    15A     -0.487525
      16A     -0.460121    17A     -0.436247    18A     -0.420245
      19A     -0.402296    20A     -0.394190    21A     -0.351421

  @DF-RKS Final Energy:  -233.57837037952223

   => Energetics <=

    Nuclear Repulsion Energy =            187.5011164050228274
    One-Electron Energy =                -686.8567064785084995
    Two-Electron Energy =                 289.0254574513741659
    DFT Exchange-Correlation Energy =     -23.2408066993437004
    Empirical Dispersion Energy =          -0.0074310580669642
    VV10 Nonlocal Energy =                  0.0000000000000000
    Total Energy =                       -233.5783703795221982

  Dipole Moment: [D]
     X:     0.6572      Y:    -1.6693      Z:    -0.6306     Total:     1.9016

    Molecular point group: c1
  Basis Set: 6-311G
    Blend: 6-311G
  Basis Set: (6-311G AUX)
    Blend: CC-PVTZ-JKFIT

  -Total Gradient:
     Atom            X                  Y                   Z
    ------   -----------------  -----------------  -----------------
       1        0.001403385322    -0.000753364851    -0.000905059553
       2       -0.002685909845    -0.004565988835     0.006364889080
       3        0.002833607354     0.006302548465    -0.004952840741
       4       -0.000442915708     0.002896000901    -0.002482769125
       5       -0.000077829784    -0.004096445338     0.002828026762
       6       -0.000084331855    -0.000072800547    -0.000318399858
       7       -0.000173529961    -0.000155206492    -0.000068470221
       8        0.000110028858     0.000013554452    -0.000155168815
       9       -0.000164226875    -0.000217844583    -0.000041860825
      10        0.000007158161     0.000200039423    -0.000210473011
      11        0.000180988353    -0.000340674028     0.000283557214
      12       -0.000291427092     0.000579507834    -0.000593414052
      13       -0.000017616481    -0.000013958982    -0.000084958178
      14       -0.000019565936     0.000027075442     0.000155644427
      15       -0.000454845280     0.000376841479     0.000185322644

  **** Optimization is complete! (in 3 steps) ****
    Final optimized geometry and variables:
    Molecular point group: c1

    Geometry (in Angstrom), charge = 0, multiplicity = 1:

    O           -2.184448385787     0.178720518641    -0.571089878639
    C           -0.099600904825     0.642312390798     0.473092859000
    C            1.354846416455     0.253048897337     0.818772293802
    C           -0.864980337720    -0.373862740893    -0.355319765081
    C            2.076762333895    -0.628250776528    -0.208916468734
    H           -0.664203441853     0.836844524257     1.386069919707
    H           -0.107942596508     1.574797681273    -0.098419484956
    H            1.357764555624    -0.283132762106     1.773573140111
    H            1.931632578524     1.164957762394     0.986332044961
    H           -0.363284087969    -0.539495229300    -1.314190398348
    H           -0.927584267521    -1.334850514326     0.172845959391
    H            1.562196367848    -1.579008811924    -0.357334128209
    H            3.092154868568    -0.849161888933     0.123920333014
    H            2.146800643523    -0.133699616801    -1.181270428148
    H           -2.733227416877    -0.422594963693    -1.091669037536

*** Psi4 exiting successfully. Buy a developer a beer!
