                               Psi4 1.3.2 release

  ==> Input File <==

--------------------------------------------------------------------------
molecule {
0 1
 O   -1.544075   -1.258585    0.214334
 C    0.071328    0.588264    0.139152
 C    1.125715   -0.554869    0.051791
 C   -1.429160    0.168056    0.230086
 C    2.581694   -0.052756   -0.030970
 H    0.293760    1.216772    1.011910
 H    0.181010    1.248297   -0.731775
 H    0.913752   -1.181927   -0.824482
 H    1.024484   -1.212306    0.925440
 H   -1.874896    0.582113    1.143451
 H   -1.987999    0.610185   -0.604507
 H    2.733390    0.575768   -0.914865
 H    3.278598   -0.895003   -0.095269
 H    2.848184    0.533870    0.854530
 H   -2.490711   -1.488971    0.266596
}
set optking {
  frozen_dihedral = ("
    3 2 4 1
    2 4 1 15
    4 2 3 5
    12 5 3 2
  ")
}
set {
  geom_maxiter 400
  g_convergence GAU_LOOSE
  dynamic_level 1
}
memory 700MB
set_num_threads(8)
psi4_io.set_default_path("/home/daniele/PSI4_sctatch/Psi4-1butanol_3D")
for _ in range(1):
  try:
    set opt_coordinates both
    optimize('wb97x-d/6-311G')
    break
  except OptimizationConvergenceError:
    break
  else:
    try:
      set opt_coordinates cartesian
      optimize('wb97x-d/6-311G')
      break
    except OptimizationConvergenceError:
      pass
clean()
--------------------------------------------------------------------------

    Molecular point group: c1
  Charge       = 0
  Multiplicity = 1
  Basis Set: 6-311G
    Blend: 6-311G
  Basis Set: (6-311G AUX)
    Blend: CC-PVTZ-JKFIT
  @DF-RKS Final Energy:  -233.57260507723274
    Total Energy =                       -233.5726050772327085
    Molecular point group: c1
  Basis Set: 6-311G
    Blend: 6-311G
  Basis Set: (6-311G AUX)
    Blend: CC-PVTZ-JKFIT
  Basis Set: 6-311G
    Blend: 6-311G
  Basis Set: (6-311G AUX)
    Blend: CC-PVTZ-JKFIT
  @DF-RKS Final Energy:  -233.57447198486105
    Total Energy =                       -233.5744719848610202
  Basis Set: 6-311G
    Blend: 6-311G
  Basis Set: (6-311G AUX)
    Blend: CC-PVTZ-JKFIT
  Charge       = 0
  Multiplicity = 1
  Basis Set: 6-311G
    Blend: 6-311G
  Basis Set: (6-311G AUX)
    Blend: CC-PVTZ-JKFIT

    Orbital Energies [Eh]
    ---------------------

    Doubly Occupied:

       1A    -19.234954     2A    -10.331218     3A    -10.276205
       4A    -10.264459     5A    -10.260900     6A     -1.119744
       7A     -0.888505     8A     -0.817799     9A     -0.726146
      10A     -0.667882    11A     -0.594342    12A     -0.568076
      13A     -0.516618    14A     -0.516194    15A     -0.473164
      16A     -0.448418    17A     -0.433489    18A     -0.413982
      19A     -0.401925    20A     -0.391824    21A     -0.346192

  @DF-RKS Final Energy:  -233.57467288268424

   => Energetics <=

    Nuclear Repulsion Energy =            187.9413845600908815
    One-Electron Energy =                -687.9331476147755211
    Two-Electron Energy =                 289.6626307229802819
    DFT Exchange-Correlation Energy =     -23.2386518109956839
    Empirical Dispersion Energy =          -0.0068887399841986
    VV10 Nonlocal Energy =                  0.0000000000000000
    Total Energy =                       -233.5746728826842116

  Dipole Moment: [D]
     X:    -1.6330      Y:     1.0134      Z:     0.1126     Total:     1.9252

    Molecular point group: c1
  Basis Set: 6-311G
    Blend: 6-311G
  Basis Set: (6-311G AUX)
    Blend: CC-PVTZ-JKFIT

  -Total Gradient:
     Atom            X                  Y                   Z
    ------   -----------------  -----------------  -----------------
       1       -0.000865051539     0.001884513822     0.000113868192
       2        0.001231736637     0.000108444594    -0.000117707067
       3       -0.000191870903     0.000318019737    -0.000018235521
       4       -0.000349856702    -0.002268948297     0.000013424894
       5        0.000303504356     0.000241130306    -0.000003126449
       6        0.000195354419    -0.000011220253    -0.000167283619
       7        0.000191756283    -0.000029923595     0.000155716376
       8        0.000081433205     0.000171426909     0.000249114666
       9        0.000039320585     0.000183400952    -0.000242534724
      10       -0.000172789955    -0.000007035917     0.000113830191
      11       -0.000192493731    -0.000000237357    -0.000094110829
      12       -0.000078113982    -0.000109340670     0.000172925997
      13       -0.000102517298    -0.000098552069     0.000005741905
      14       -0.000098631555    -0.000108060482    -0.000153523499
      15        0.000136952236    -0.000334751587    -0.000038715188

  **** Optimization is complete! (in 3 steps) ****
    Final optimized geometry and variables:
    Molecular point group: c1

    Geometry (in Angstrom), charge = 0, multiplicity = 1:

    O           -1.619471290312    -1.017856677524     0.087844431935
    C           -0.028425913098     0.847764509137     0.015325841194
    C            0.971070834660    -0.312006323860    -0.069316784772
    C           -1.510684264974     0.426144134092     0.104936086960
    C            2.414243275942     0.192974796138    -0.151008936371
    H            0.228600215743     1.459901841738     0.884939345647
    H            0.114791657487     1.489448318409    -0.859112889797
    H            0.740094029427    -0.929264359533    -0.938102582496
    H            0.849745447209    -0.961167884099     0.798439541514
    H           -1.954490609297     0.817078634608     1.026965205434
    H           -2.069521521503     0.846787095237    -0.738119003420
    H            2.563217021948     0.821652906742    -1.032779092172
    H            3.117914292458    -0.639334937111    -0.211503302814
    H            2.674608259973     0.787756878388     0.728427662934
    H           -2.545208135214    -1.289658347113     0.138132673836

*** Psi4 exiting successfully. Buy a developer a beer!
