                               Psi4 1.3.2 release

  ==> Input File <==

--------------------------------------------------------------------------
molecule {
0 1
 O   -2.253684    0.133089   -0.704479
 C    0.058317    0.362120   -0.105731
 C    1.218940   -0.432669    0.500061
 C   -1.306056   -0.132077    0.356336
 C    2.585582    0.074331    0.033283
 H    0.172568    1.427456    0.108933
 H    0.081370    0.253713   -1.193229
 H    1.107514   -1.486904    0.227509
 H    1.167835   -0.389236    1.593795
 H   -1.255374   -1.211906    0.546257
 H   -1.609295    0.362743    1.286403
 H    2.674954    0.002299   -1.052926
 H    3.397463   -0.505282    0.476282
 H    2.728871    1.121004    0.310807
 H   -3.141473   -0.158511   -0.457593
}
memory 700MB
set_num_threads(8)
psi4_io.set_default_path("/home/daniele/PSI4_sctatch/Psi4-1butanol_3D")
set freeze_core True
E, wfn = energy('wb97x-d/6-311+G*',return_wfn=True)
oeprop(wfn,"WIBERG_LOWDIN_INDICES")
clean()
--------------------------------------------------------------------------

    Molecular point group: c1

    Geometry (in Angstrom), charge = 0, multiplicity = 1:

       Center              X                  Y                   Z               Mass
    ------------   -----------------  -----------------  -----------------  -----------------
         O           -2.253684130956     0.133088885381    -0.704478884109    15.994914619570
         C            0.058316869044     0.362119885381    -0.105730884109    12.000000000000
         C            1.218939869044    -0.432669114619     0.500061115891    12.000000000000
         C           -1.306056130956    -0.132077114619     0.356336115891    12.000000000000
         C            2.585581869044     0.074330885381     0.033283115891    12.000000000000
         H            0.172567869044     1.427455885381     0.108933115891     1.007825032230
         H            0.081369869044     0.253712885381    -1.193228884109     1.007825032230
         H            1.107513869044    -1.486904114619     0.227509115891     1.007825032230
         H            1.167834869044    -0.389236114619     1.593795115891     1.007825032230
         H           -1.255374130956    -1.211906114619     0.546257115891     1.007825032230
         H           -1.609295130956     0.362742885381     1.286403115891     1.007825032230
         H            2.674953869044     0.002298885381    -1.052925884109     1.007825032230
         H            3.397462869044    -0.505282114619     0.476282115891     1.007825032230
         H            2.728870869044     1.121003885381     0.310807115891     1.007825032230
         H           -3.141473130956    -0.158511114619    -0.457592884109     1.007825032230

  Charge       = 0
  Multiplicity = 1
  Basis Set: 6-311+G*
    Blend: 6-311+G*
  Basis Set: (6-311+G* AUX)
    Blend: HEAVY-AUG-CC-PVTZ-JKFIT

    Orbital Energies [Eh]
    ---------------------

    Doubly Occupied:

       1A    -19.244953     2A    -10.328107     3A    -10.279206
       4A    -10.273084     5A    -10.268401     6A     -1.116390
       7A     -0.896645     8A     -0.820318     9A     -0.724282
      10A     -0.676747    11A     -0.602406    12A     -0.567063
      13A     -0.525284    14A     -0.518580    15A     -0.482555
      16A     -0.453412    17A     -0.440810    18A     -0.418951
      19A     -0.410477    20A     -0.406491    21A     -0.359447

  @DF-RKS Final Energy:  -233.64461901813939

   => Energetics <=

    Nuclear Repulsion Energy =            184.5107343468008310
    One-Electron Energy =                -680.9675180530163061
    Two-Electron Energy =                 286.0589662214688929
    DFT Exchange-Correlation Energy =     -23.2399124868066842
    Empirical Dispersion Energy =          -0.0068890465861414
    VV10 Nonlocal Energy =                  0.0000000000000000
    Total Energy =                       -233.6446190181393661

  Dipole Moment: [D]
     X:    -0.2939      Y:    -0.8054      Z:     1.5762     Total:     1.7943

*** Psi4 exiting successfully. Buy a developer a beer!
