                               Psi4 1.3.2 release

  ==> Input File <==

--------------------------------------------------------------------------
molecule {
0 1
 O   -1.700269   -0.991108   -0.520413
 C    0.055465    0.561662    0.050867
 C    1.145686   -0.525887    0.260920
 C   -1.388765    0.099344    0.351520
 C    2.576620   -0.037838   -0.042054
 H    0.272004    1.429999    0.687262
 H    0.087519    0.923047   -0.985630
 H    0.924097   -1.392899   -0.375740
 H    1.103272   -0.892327    1.295081
 H   -1.478489   -0.198421    1.403817
 H   -2.085175    0.933665    0.200061
 H    2.668174    0.295948   -1.081253
 H    3.301936   -0.843071    0.115256
 H    2.856725    0.795970    0.610422
 H   -2.613727   -1.279175   -0.334693
}
set optking {
  frozen_dihedral = ("
    3 2 4 1
    2 4 1 15
    4 2 3 5
    12 5 3 2
  ")
}
set {
  geom_maxiter 400
  g_convergence GAU_LOOSE
  dynamic_level 1
}
memory 700MB
set_num_threads(8)
psi4_io.set_default_path("/home/daniele/PSI4_sctatch/Psi4-1butanol_3D")
for _ in range(1):
  try:
    set opt_coordinates both
    optimize('wb97x-d/6-311G')
    break
  except OptimizationConvergenceError:
    break
  else:
    try:
      set opt_coordinates cartesian
      optimize('wb97x-d/6-311G')
      break
    except OptimizationConvergenceError:
      pass
clean()
--------------------------------------------------------------------------

    Molecular point group: c1
  Charge       = 0
  Multiplicity = 1
  Basis Set: 6-311G
    Blend: 6-311G
  Basis Set: (6-311G AUX)
    Blend: CC-PVTZ-JKFIT
  @DF-RKS Final Energy:  -233.58112206370399
    Total Energy =                       -233.5811220637039298
    Molecular point group: c1
  Basis Set: 6-311G
    Blend: 6-311G
  Basis Set: (6-311G AUX)
    Blend: CC-PVTZ-JKFIT
  Basis Set: 6-311G
    Blend: 6-311G
  Basis Set: (6-311G AUX)
    Blend: CC-PVTZ-JKFIT
  @DF-RKS Final Energy:  -233.58280097682001
    Total Energy =                       -233.5828009768199536
  Basis Set: 6-311G
    Blend: 6-311G
  Basis Set: (6-311G AUX)
    Blend: CC-PVTZ-JKFIT
  Charge       = 0
  Multiplicity = 1
  Basis Set: 6-311G
    Blend: 6-311G
  Basis Set: (6-311G AUX)
    Blend: CC-PVTZ-JKFIT

    Orbital Energies [Eh]
    ---------------------

    Doubly Occupied:

       1A    -19.235966     2A    -10.330596     3A    -10.274996
       4A    -10.268230     5A    -10.263076     6A     -1.120627
       7A     -0.893332     8A     -0.821359     9A     -0.725209
      10A     -0.669960    11A     -0.607699    12A     -0.553348
      13A     -0.527742    14A     -0.516380    15A     -0.470560
      16A     -0.457538    17A     -0.434809    18A     -0.414121
      19A     -0.404065    20A     -0.393238    21A     -0.351653

  @DF-RKS Final Energy:  -233.58295394757448

   => Energetics <=

    Nuclear Repulsion Energy =            187.7561100312358917
    One-Electron Energy =                -687.4926427006863605
    Two-Electron Energy =                 289.4017232042453429
    DFT Exchange-Correlation Energy =     -23.2411111477588435
    Empirical Dispersion Energy =          -0.0070333346105309
    VV10 Nonlocal Energy =                  0.0000000000000000
    Total Energy =                       -233.5829539475744809

  Dipole Moment: [D]
     X:    -1.3221      Y:     0.5719      Z:     1.2280     Total:     1.8929

    Molecular point group: c1
  Basis Set: 6-311G
    Blend: 6-311G
  Basis Set: (6-311G AUX)
    Blend: CC-PVTZ-JKFIT

  -Total Gradient:
     Atom            X                  Y                   Z
    ------   -----------------  -----------------  -----------------
       1        0.000504549242     0.000708986920     0.001805770746
       2        0.000661128709    -0.000150977129     0.000492544314
       3       -0.000471267306     0.000107759594    -0.000850190049
       4       -0.000614932368    -0.000696963294    -0.001446569366
       5        0.000398301135     0.000202755785     0.000101699607
       6       -0.000181986138    -0.000233469596    -0.000004794551
       7       -0.000002649174    -0.000091399258     0.000070366992
       8        0.000025624178     0.000121729745     0.000063966742
       9        0.000013158663     0.000100741611    -0.000110712969
      10        0.000042699779    -0.000126126885     0.000119582745
      11       -0.000229182792     0.000256617818    -0.000026347986
      12       -0.000146065242    -0.000092457503     0.000199999571
      13        0.000005675513    -0.000050192686     0.000009924320
      14       -0.000078178418    -0.000129113456    -0.000108180976
      15        0.000024807571     0.000080682630    -0.000291814906

  **** Optimization is complete! (in 3 steps) ****
    Final optimized geometry and variables:
    Molecular point group: c1

    Geometry (in Angstrom), charge = 0, multiplicity = 1:

    O           -1.749631328613    -0.790974974170    -0.533247105398
    C           -0.030282790644     0.766541491774     0.052203631369
    C            1.024096428543    -0.325776822670     0.246570480858
    C           -1.442759195983     0.303851520720     0.360768017466
    C            2.440354806652     0.163463201887    -0.066261354049
    H            0.198456756176     1.622333664329     0.696616263151
    H            0.000382816232     1.124497657929    -0.980997332511
    H            0.767406879100    -1.174056736451    -0.389067592737
    H            0.980718957497    -0.684658395860     1.281037143026
    H           -1.505787624733    -0.026535793951     1.405563998808
    H           -2.148545151898     1.129867671922     0.214763869363
    H            2.512983186272     0.503953757535    -1.101911655786
    H            3.175006008831    -0.631184566975     0.076578762068
    H            2.720410313020     0.999476893833     0.579837529804
    H           -2.644482041690    -1.122693064409    -0.383495011758

*** Psi4 exiting successfully. Buy a developer a beer!
