                               Psi4 1.3.2 release

  ==> Input File <==

--------------------------------------------------------------------------
molecule {
0 1
 O   -1.749631   -0.790975   -0.533247
 C   -0.030283    0.766541    0.052204
 C    1.024096   -0.325777    0.246570
 C   -1.442759    0.303852    0.360768
 C    2.440355    0.163463   -0.066261
 H    0.198457    1.622334    0.696616
 H    0.000383    1.124498   -0.980997
 H    0.767407   -1.174057   -0.389068
 H    0.980719   -0.684658    1.281037
 H   -1.505788   -0.026536    1.405564
 H   -2.148545    1.129868    0.214764
 H    2.512983    0.503954   -1.101912
 H    3.175006   -0.631185    0.076579
 H    2.720410    0.999477    0.579838
 H   -2.644482   -1.122693   -0.383495
}
memory 700MB
set_num_threads(8)
psi4_io.set_default_path("/home/daniele/PSI4_sctatch/Psi4-1butanol_3D")
set freeze_core True
E, wfn = energy('wb97x-d/6-311+G*',return_wfn=True)
oeprop(wfn,"WIBERG_LOWDIN_INDICES")
clean()
--------------------------------------------------------------------------

    Molecular point group: c1

    Geometry (in Angstrom), charge = 0, multiplicity = 1:

       Center              X                  Y                   Z               Mass
    ------------   -----------------  -----------------  -----------------  -----------------
         O           -1.749631029346    -0.790974943374    -0.533247059467    15.994914619570
         C           -0.030283029346     0.766541056626     0.052203940533    12.000000000000
         C            1.024095970654    -0.325776943374     0.246569940533    12.000000000000
         C           -1.442759029346     0.303852056626     0.360767940533    12.000000000000
         C            2.440354970654     0.163463056626    -0.066261059467    12.000000000000
         H            0.198456970654     1.622334056626     0.696615940533     1.007825032230
         H            0.000382970654     1.124498056626    -0.980997059467     1.007825032230
         H            0.767406970654    -1.174056943374    -0.389068059467     1.007825032230
         H            0.980718970654    -0.684657943374     1.281036940533     1.007825032230
         H           -1.505788029346    -0.026535943374     1.405563940533     1.007825032230
         H           -2.148545029346     1.129868056626     0.214763940533     1.007825032230
         H            2.512982970654     0.503954056626    -1.101912059467     1.007825032230
         H            3.175005970654    -0.631184943374     0.076578940533     1.007825032230
         H            2.720409970654     0.999477056626     0.579837940533     1.007825032230
         H           -2.644482029346    -1.122692943374    -0.383495059467     1.007825032230

  Charge       = 0
  Multiplicity = 1
  Basis Set: 6-311+G*
    Blend: 6-311+G*
  Basis Set: (6-311+G* AUX)
    Blend: HEAVY-AUG-CC-PVTZ-JKFIT

    Orbital Energies [Eh]
    ---------------------

    Doubly Occupied:

       1A    -19.245426     2A    -10.328587     3A    -10.274144
       4A    -10.268230     5A    -10.263157     6A     -1.117493
       7A     -0.891705     8A     -0.819204     9A     -0.723323
      10A     -0.668662    11A     -0.610518    12A     -0.552536
      13A     -0.527935    14A     -0.516637    15A     -0.471456
      16A     -0.460272    17A     -0.441303    18A     -0.416209
      19A     -0.406587    20A     -0.399002    21A     -0.359581

  @DF-RKS Final Energy:  -233.64713236545163

   => Energetics <=

    Nuclear Repulsion Energy =            187.7561138438582020
    One-Electron Energy =                -687.5654442671390143
    Two-Electron Energy =                 289.4108412337644722
    DFT Exchange-Correlation Energy =     -23.2416098409792298
    Empirical Dispersion Energy =          -0.0070333349560875
    VV10 Nonlocal Energy =                  0.0000000000000000
    Total Energy =                       -233.6471323654516539

  Dipole Moment: [D]
     X:    -1.1640      Y:     0.5690      Z:     1.1812     Total:     1.7532

*** Psi4 exiting successfully. Buy a developer a beer!
