                               Psi4 1.3.2 release

  ==> Input File <==

--------------------------------------------------------------------------
molecule {
0 1
 O   -2.303377    0.330671   -0.583464
 C    0.068561    0.211885   -0.230628
 C    1.232175   -0.409862    0.545822
 C   -1.283872   -0.312370    0.217322
 C    2.592011    0.126301    0.091940
 H    0.073554    1.298050   -0.108465
 H    0.183503    0.012150   -1.299388
 H    1.210954   -1.498126    0.425635
 H    1.102738   -0.213906    1.615763
 H   -1.334629   -1.398755    0.083610
 H   -1.426822   -0.092699    1.282416
 H    2.758182   -0.084495   -0.966761
 H    3.407778   -0.327221    0.657717
 H    2.647845    1.208543    0.228455
 H   -3.130249    0.421232   -0.094267
}
memory 700MB
set_num_threads(8)
psi4_io.set_default_path("/home/daniele/PSI4_sctatch/Psi4-1butanol_3D")
set freeze_core True
E, wfn = energy('wb97x-d/6-311+G*',return_wfn=True)
oeprop(wfn,"WIBERG_LOWDIN_INDICES")
clean()
--------------------------------------------------------------------------

    Molecular point group: c1

    Geometry (in Angstrom), charge = 0, multiplicity = 1:

       Center              X                  Y                   Z               Mass
    ------------   -----------------  -----------------  -----------------  -----------------
         O           -2.303377233660     0.330671111523    -0.583464115968    15.994914619570
         C            0.068560766340     0.211885111523    -0.230628115968    12.000000000000
         C            1.232174766340    -0.409861888477     0.545821884032    12.000000000000
         C           -1.283872233660    -0.312369888477     0.217321884032    12.000000000000
         C            2.592010766340     0.126301111523     0.091939884032    12.000000000000
         H            0.073553766340     1.298050111523    -0.108465115968     1.007825032230
         H            0.183502766340     0.012150111523    -1.299388115968     1.007825032230
         H            1.210953766340    -1.498125888477     0.425634884032     1.007825032230
         H            1.102737766340    -0.213905888477     1.615762884032     1.007825032230
         H           -1.334629233660    -1.398754888477     0.083609884032     1.007825032230
         H           -1.426822233660    -0.092698888477     1.282415884032     1.007825032230
         H            2.758181766340    -0.084494888477    -0.966761115968     1.007825032230
         H            3.407777766340    -0.327220888477     0.657716884032     1.007825032230
         H            2.647844766340     1.208543111523     0.228454884032     1.007825032230
         H           -3.130249233660     0.421232111523    -0.094267115968     1.007825032230

  Charge       = 0
  Multiplicity = 1
  Basis Set: 6-311+G*
    Blend: 6-311+G*
  Basis Set: (6-311+G* AUX)
    Blend: HEAVY-AUG-CC-PVTZ-JKFIT

    Orbital Energies [Eh]
    ---------------------

    Doubly Occupied:

       1A    -19.244267     2A    -10.328190     3A    -10.279949
       4A    -10.273047     5A    -10.269067     6A     -1.116069
       7A     -0.897693     8A     -0.821187     9A     -0.724750
      10A     -0.677049    11A     -0.601584    12A     -0.570969
      13A     -0.523673    14A     -0.518846    15A     -0.484689
      16A     -0.453356    17A     -0.438921    18A     -0.420311
      19A     -0.413265    20A     -0.406645    21A     -0.358842

  @DF-RKS Final Energy:  -233.64611136991735

   => Energetics <=

    Nuclear Repulsion Energy =            184.4186250993813871
    One-Electron Energy =                -680.7675279286779642
    Two-Electron Energy =                 285.9511433677211016
    DFT Exchange-Correlation Energy =     -23.2414061519782855
    Empirical Dispersion Energy =          -0.0069457563635663
    VV10 Nonlocal Energy =                  0.0000000000000000
    Total Energy =                       -233.6461113699172927

  Dipole Moment: [D]
     X:    -0.0939      Y:    -0.5223      Z:     1.7712     Total:     1.8490

*** Psi4 exiting successfully. Buy a developer a beer!
