                               Psi4 1.3.2 release

  ==> Input File <==

--------------------------------------------------------------------------
molecule {
0 1
 O   -2.219423    0.355663   -0.314648
 C   -0.054503   -0.584373   -0.565080
 C    1.455726   -0.677130   -0.202785
 C   -0.862771    0.467469    0.176241
 C    1.977067    0.298813    0.862824
 H   -0.175306   -0.381930   -1.630529
 H   -0.545038   -1.542239   -0.384139
 H    2.045856   -0.531021   -1.110300
 H    1.677585   -1.692635    0.132788
 H   -0.831649    0.289434    1.256666
 H   -0.467003    1.469976   -0.019929
 H    1.834788    1.339542    0.567246
 H    3.046280    0.146915    1.017328
 H    1.485151    0.151815    1.825798
 H   -2.798672    1.002030    0.109626
}
memory 700MB
set_num_threads(8)
psi4_io.set_default_path("/home/daniele/PSI4_sctatch/Psi4-1butanol_3D")
set freeze_core True
E, wfn = energy('wb97x-d/6-311+G*',return_wfn=True)
oeprop(wfn,"WIBERG_LOWDIN_INDICES")
clean()
--------------------------------------------------------------------------

    Molecular point group: c1

    Geometry (in Angstrom), charge = 0, multiplicity = 1:

       Center              X                  Y                   Z               Mass
    ------------   -----------------  -----------------  -----------------  -----------------
         O           -2.219422893586     0.355662927879    -0.314647929860    15.994914619570
         C           -0.054502893586    -0.584373072121    -0.565079929860    12.000000000000
         C            1.455726106414    -0.677130072121    -0.202784929860    12.000000000000
         C           -0.862770893586     0.467468927879     0.176241070140    12.000000000000
         C            1.977067106414     0.298812927879     0.862824070140    12.000000000000
         H           -0.175305893586    -0.381930072121    -1.630528929860     1.007825032230
         H           -0.545037893586    -1.542239072121    -0.384138929860     1.007825032230
         H            2.045856106414    -0.531021072121    -1.110299929860     1.007825032230
         H            1.677585106414    -1.692635072121     0.132788070140     1.007825032230
         H           -0.831648893586     0.289433927879     1.256666070140     1.007825032230
         H           -0.467002893586     1.469975927879    -0.019928929860     1.007825032230
         H            1.834788106414     1.339541927879     0.567246070140     1.007825032230
         H            3.046280106414     0.146914927879     1.017328070140     1.007825032230
         H            1.485151106414     0.151814927879     1.825798070140     1.007825032230
         H           -2.798671893586     1.002029927879     0.109626070140     1.007825032230

  Charge       = 0
  Multiplicity = 1
  Basis Set: 6-311+G*
    Blend: 6-311+G*
  Basis Set: (6-311+G* AUX)
    Blend: HEAVY-AUG-CC-PVTZ-JKFIT

    Orbital Energies [Eh]
    ---------------------

    Doubly Occupied:

       1A    -19.244398     2A    -10.327175     3A    -10.279926
       4A    -10.272502     5A    -10.271562     6A     -1.116018
       7A     -0.893015     8A     -0.817125     9A     -0.741270
      10A     -0.659468    11A     -0.604240    12A     -0.571270
      13A     -0.519960    14A     -0.515012    15A     -0.487187
      16A     -0.463254    17A     -0.443563    18A     -0.420247
      19A     -0.401790    20A     -0.400525    21A     -0.359205

  @DF-RKS Final Energy:  -233.63852693076933

   => Energetics <=

    Nuclear Repulsion Energy =            187.1934299895083029
    One-Electron Energy =                -686.3292021550507798
    Two-Electron Energy =                 288.7452450492069147
    DFT Exchange-Correlation Energy =     -23.2406368121256861
    Empirical Dispersion Energy =          -0.0073630023081137
    VV10 Nonlocal Energy =                  0.0000000000000000
    Total Energy =                       -233.6385269307693306

  Dipole Moment: [D]
     X:     0.7203      Y:     1.0861      Z:     1.1978     Total:     1.7701

*** Psi4 exiting successfully. Buy a developer a beer!
