                               Psi4 1.3.2 release

  ==> Input File <==

--------------------------------------------------------------------------
molecule {
0 1
 O   -2.306216    0.391629   -0.532791
 C    0.068883    0.215948   -0.227012
 C    1.231909   -0.425033    0.534506
 C   -1.287059   -0.265829    0.256676
 C    2.595467    0.068488    0.044759
 H    0.109951    1.303788   -0.125695
 H    0.151089   -0.006732   -1.293964
 H    1.180038   -1.514162    0.430095
 H    1.129963   -0.211344    1.603760
 H   -1.348705   -1.355268    0.144807
 H   -1.421951   -0.023951    1.316832
 H    2.734076   -0.161216   -1.014030
 H    3.410854   -0.398187    0.600318
 H    2.681933    1.150628    0.164444
 H   -3.093218   -0.159754   -0.621203
}
memory 700MB
set_num_threads(8)
psi4_io.set_default_path("/home/daniele/PSI4_sctatch/Psi4-1butanol_3D")
set freeze_core True
E, wfn = energy('wb97x-d/6-311+G*',return_wfn=True)
oeprop(wfn,"WIBERG_LOWDIN_INDICES")
clean()
--------------------------------------------------------------------------

    Molecular point group: c1

    Geometry (in Angstrom), charge = 0, multiplicity = 1:

       Center              X                  Y                   Z               Mass
    ------------   -----------------  -----------------  -----------------  -----------------
         O           -2.306216080310     0.391629086079    -0.532790965670    15.994914619570
         C            0.068882919690     0.215948086079    -0.227011965670    12.000000000000
         C            1.231908919690    -0.425032913921     0.534506034330    12.000000000000
         C           -1.287059080310    -0.265828913921     0.256676034330    12.000000000000
         C            2.595466919690     0.068488086079     0.044759034330    12.000000000000
         H            0.109950919690     1.303788086079    -0.125694965670     1.007825032230
         H            0.151088919690    -0.006731913921    -1.293963965670     1.007825032230
         H            1.180037919690    -1.514161913921     0.430095034330     1.007825032230
         H            1.129962919690    -0.211343913921     1.603760034330     1.007825032230
         H           -1.348705080310    -1.355267913921     0.144807034330     1.007825032230
         H           -1.421951080310    -0.023950913921     1.316832034330     1.007825032230
         H            2.734075919690    -0.161215913921    -1.014029965670     1.007825032230
         H            3.410853919690    -0.398186913921     0.600318034330     1.007825032230
         H            2.681932919690     1.150628086079     0.164444034330     1.007825032230
         H           -3.093218080310    -0.159753913921    -0.621202965670     1.007825032230

  Charge       = 0
  Multiplicity = 1
  Basis Set: 6-311+G*
    Blend: 6-311+G*
  Basis Set: (6-311+G* AUX)
    Blend: HEAVY-AUG-CC-PVTZ-JKFIT

    Orbital Energies [Eh]
    ---------------------

    Doubly Occupied:

       1A    -19.244250     2A    -10.328195     3A    -10.279969
       4A    -10.273051     5A    -10.269075     6A     -1.116061
       7A     -0.897703     8A     -0.821187     9A     -0.724756
      10A     -0.677060    11A     -0.601420    12A     -0.571199
      13A     -0.523705    14A     -0.518734    15A     -0.484786
      16A     -0.453271    17A     -0.438917    18A     -0.420412
      19A     -0.413151    20A     -0.406682    21A     -0.358850

  @DF-RKS Final Energy:  -233.64609667427368

   => Energetics <=

    Nuclear Repulsion Energy =            184.4177675815945463
    One-Electron Energy =                -680.7656568563553492
    Two-Electron Energy =                 285.9501429187272947
    DFT Exchange-Correlation Energy =     -23.2414044136928126
    Empirical Dispersion Energy =          -0.0069459045473795
    VV10 Nonlocal Energy =                  0.0000000000000000
    Total Energy =                       -233.6460966742737071

  Dipole Moment: [D]
     X:    -0.0210      Y:    -1.7106      Z:     0.7044     Total:     1.8500

*** Psi4 exiting successfully. Buy a developer a beer!
