                               Psi4 1.3.2 release

  ==> Input File <==

--------------------------------------------------------------------------
molecule {
0 1
 O   -2.394846    0.090291   -0.509341
 C    0.059177    0.194899   -0.256446
 C    1.271254   -0.285943    0.546019
 C   -1.259381   -0.363390    0.263956
 C    2.591399    0.282411    0.019566
 H    0.019445    1.291618   -0.224404
 H    0.164553   -0.086871   -1.307401
 H    1.309285   -1.380051    0.522389
 H    1.145325   -0.004281    1.596817
 H   -1.276794   -1.448552    0.180855
 H   -1.385379   -0.100973    1.321782
 H    2.754155   -0.013087   -1.019389
 H    3.439825   -0.072873    0.606902
 H    2.588586    1.374343    0.058830
 H   -2.452382    1.055996   -0.476515
}
memory 700MB
set_num_threads(8)
psi4_io.set_default_path("/home/daniele/PSI4_sctatch/Psi4-1butanol_3D")
set freeze_core True
E, wfn = energy('wb97x-d/6-311+G*',return_wfn=True)
oeprop(wfn,"WIBERG_LOWDIN_INDICES")
clean()
--------------------------------------------------------------------------

    Molecular point group: c1

    Geometry (in Angstrom), charge = 0, multiplicity = 1:

       Center              X                  Y                   Z               Mass
    ------------   -----------------  -----------------  -----------------  -----------------
         O           -2.394845989199     0.090290941468    -0.509340982245    15.994914619570
         C            0.059177010801     0.194898941468    -0.256445982245    12.000000000000
         C            1.271254010801    -0.285943058532     0.546019017755    12.000000000000
         C           -1.259380989199    -0.363390058532     0.263956017755    12.000000000000
         C            2.591399010801     0.282410941468     0.019566017755    12.000000000000
         H            0.019445010801     1.291617941468    -0.224403982245     1.007825032230
         H            0.164553010801    -0.086871058532    -1.307400982245     1.007825032230
         H            1.309285010801    -1.380051058532     0.522389017755     1.007825032230
         H            1.145325010801    -0.004281058532     1.596817017755     1.007825032230
         H           -1.276793989199    -1.448552058532     0.180855017755     1.007825032230
         H           -1.385378989199    -0.100973058532     1.321782017755     1.007825032230
         H            2.754155010801    -0.013087058532    -1.019388982245     1.007825032230
         H            3.439825010801    -0.072873058532     0.606902017755     1.007825032230
         H            2.588586010801     1.374342941468     0.058830017755     1.007825032230
         H           -2.452381989199     1.055995941468    -0.476514982245     1.007825032230

  Charge       = 0
  Multiplicity = 1
  Basis Set: 6-311+G*
    Blend: 6-311+G*
  Basis Set: (6-311+G* AUX)
    Blend: HEAVY-AUG-CC-PVTZ-JKFIT

    Orbital Energies [Eh]
    ---------------------

    Doubly Occupied:

       1A    -19.244581     2A    -10.327774     3A    -10.284536
       4A    -10.280749     5A    -10.273285     6A     -1.116197
       7A     -0.901305     8A     -0.822177     9A     -0.732251
      10A     -0.685242    11A     -0.597754    12A     -0.564046
      13A     -0.531590    14A     -0.520881    15A     -0.477379
      16A     -0.471053    17A     -0.450880    18A     -0.425611
      19A     -0.417552    20A     -0.405139    21A     -0.357593

  @DF-RKS Final Energy:  -233.64691593107307

   => Energetics <=

    Nuclear Repulsion Energy =            184.1671459053821138
    One-Electron Energy =                -680.1365054602616738
    Two-Electron Energy =                 285.5694096152153634
    DFT Exchange-Correlation Energy =     -23.2398713818745719
    Empirical Dispersion Energy =          -0.0070946095342341
    VV10 Nonlocal Energy =                  0.0000000000000000
    Total Energy =                       -233.6469159310730106

  Dipole Moment: [D]
     X:     1.5084      Y:     1.0616      Z:     0.9375     Total:     2.0691

*** Psi4 exiting successfully. Buy a developer a beer!
