                               Psi4 1.3.2 release

  ==> Input File <==

--------------------------------------------------------------------------
molecule {
0 1
 O   -2.473829    0.052120   -0.416038
 C   -0.043664    0.117632   -0.175981
 C    1.221764   -0.439288    0.526391
 C   -1.371345   -0.524340    0.303662
 C    2.535615    0.209201    0.044806
 H   -0.103191    1.201828   -0.012945
 H    0.037323   -0.037137   -1.259848
 H    1.281158   -1.524181    0.366434
 H    1.131696   -0.296812    1.611454
 H   -1.342733   -1.610661    0.155701
 H   -1.493097   -0.360201    1.381590
 H    2.684565    0.053670   -1.029227
 H    3.395580   -0.224038    0.566723
 H    2.539019    1.287466    0.237379
 H   -2.273782    0.973653   -0.664680
}
set optking {
  frozen_dihedral = ("
    2 4 1 15
    4 2 3 5
    3 2 4 1
    12 5 3 2
  ")
}
set {
  geom_maxiter 400
  g_convergence GAU_LOOSE
  dynamic_level 1
}
memory 700MB
set_num_threads(8)
psi4_io.set_default_path("/home/daniele/PSI4_sctatch/Psi4-1butanol_3D")
for _ in range(1):
  try:
    set opt_coordinates both
    optimize('wb97x-d/6-311G')
    break
  except OptimizationConvergenceError:
    break
  else:
    try:
      set opt_coordinates cartesian
      optimize('wb97x-d/6-311G')
      break
    except OptimizationConvergenceError:
      pass
clean()
--------------------------------------------------------------------------

    Molecular point group: c1
  Charge       = 0
  Multiplicity = 1
  Basis Set: 6-311G
    Blend: 6-311G
  Basis Set: (6-311G AUX)
    Blend: CC-PVTZ-JKFIT
  @DF-RKS Final Energy:  -233.57971773307906
    Total Energy =                       -233.5797177330790646
    Molecular point group: c1
  Basis Set: 6-311G
    Blend: 6-311G
  Basis Set: (6-311G AUX)
    Blend: CC-PVTZ-JKFIT
  Basis Set: 6-311G
    Blend: 6-311G
  Basis Set: (6-311G AUX)
    Blend: CC-PVTZ-JKFIT
  @DF-RKS Final Energy:  -233.58151018366755
    Total Energy =                       -233.5815101836675467
  Basis Set: 6-311G
    Blend: 6-311G
  Basis Set: (6-311G AUX)
    Blend: CC-PVTZ-JKFIT
  Charge       = 0
  Multiplicity = 1
  Basis Set: 6-311G
    Blend: 6-311G
  Basis Set: (6-311G AUX)
    Blend: CC-PVTZ-JKFIT

    Orbital Energies [Eh]
    ---------------------

    Doubly Occupied:

       1A    -19.232547     2A    -10.328897     3A    -10.289009
       4A    -10.288003     5A    -10.276295     6A     -1.117930
       7A     -0.907086     8A     -0.826394     9A     -0.736878
      10A     -0.692315    11A     -0.589072    12A     -0.569981
      13A     -0.533128    14A     -0.524531    15A     -0.477342
      16A     -0.469721    17A     -0.457242    18A     -0.428076
      19A     -0.418191    20A     -0.392243    21A     -0.348657

  @DF-RKS Final Energy:  -233.58158933467962

   => Energetics <=

    Nuclear Repulsion Energy =            184.3153090693191700
    One-Electron Energy =                -680.2693733060852992
    Two-Electron Energy =                 285.6212375546279532
    DFT Exchange-Correlation Energy =     -23.2416335261083589
    Empirical Dispersion Energy =          -0.0071291264330125
    VV10 Nonlocal Energy =                  0.0000000000000000
    Total Energy =                       -233.5815893346795633

  Dipole Moment: [D]
     X:     2.0478      Y:     1.0224      Z:     0.4109     Total:     2.3254

    Molecular point group: c1
  Basis Set: 6-311G
    Blend: 6-311G
  Basis Set: (6-311G AUX)
    Blend: CC-PVTZ-JKFIT

  -Total Gradient:
     Atom            X                  Y                   Z
    ------   -----------------  -----------------  -----------------
       1       -0.000184450834     0.001700059979     0.003068645799
       2        0.000933700117     0.000612323189     0.001311434894
       3       -0.000574244558     0.000196287090    -0.000055524134
       4       -0.000552088958    -0.001806373492    -0.002814083364
       5        0.000083097816     0.000267250978    -0.000177914200
       6       -0.000122471704     0.000096220748     0.000056716126
       7       -0.000329075947    -0.000212659279     0.000227523893
       8        0.000020018823     0.000095156720     0.000060923701
       9       -0.000002600048     0.000062635518    -0.000174259734
      10        0.000221329875    -0.000086503257     0.000176914339
      11        0.000230708263     0.000192221524    -0.000018471333
      12       -0.000054928719    -0.000076903324     0.000220187413
      13       -0.000054524433    -0.000006828553     0.000014978862
      14       -0.000048237704    -0.000189360017    -0.000043247208
      15        0.000401603288    -0.000769182730    -0.001822502975

  **** Optimization is complete! (in 3 steps) ****
    Final optimized geometry and variables:
    Molecular point group: c1

    Geometry (in Angstrom), charge = 0, multiplicity = 1:

    O           -2.394410958213     0.077452648708    -0.530798360019
    C            0.055112961455     0.219050386284    -0.229600812441
    C            1.269139723268    -0.304116167381     0.542457089224
    C           -1.256348167308    -0.416316645141     0.214206313981
    C            2.579206073714     0.345086835727     0.090092316301
    H           -0.013350967744     1.306348505601    -0.093981416965
    H            0.187357272378     0.037829164577    -1.300524714142
    H            1.335477560249    -1.389220844506     0.415953814170
    H            1.121470747108    -0.125131838685     1.612092535432
    H           -1.235869418266    -1.493681800806     0.055207749681
    H           -1.407165782113    -0.231588382072     1.283637128872
    H            2.762744974201     0.153009162468    -0.969268213533
    H            3.428779419152    -0.043453327457     0.653760194086
    H            2.547803404317     1.427630336468     0.232975805494
    H           -2.244900037599     0.990014103533    -0.814055468597

*** Psi4 exiting successfully. Buy a developer a beer!
