                               Psi4 1.3.2 release

  ==> Input File <==

--------------------------------------------------------------------------
molecule {
0 1
 O   -2.418013    0.212025   -0.375791
 C    0.050203    0.238788   -0.207634
 C    1.283443   -0.391985    0.445259
 C   -1.260002   -0.384610    0.257006
 C    2.591754    0.245972   -0.027549
 H    0.029364    1.312031    0.014248
 H    0.123170    0.136053   -1.296631
 H    1.298016   -1.464029    0.225898
 H    1.202342   -0.298757    1.532678
 H   -1.265451   -1.453102    0.029697
 H   -1.367469   -0.265583    1.337567
 H    2.708904    0.139048   -1.108320
 H    3.454887   -0.218961    0.451274
 H    2.611700    1.312734    0.206563
 H   -2.156286    0.910416   -0.990372
}
memory 700MB
set_num_threads(8)
psi4_io.set_default_path("/home/daniele/PSI4_sctatch/Psi4-1butanol_3D")
set freeze_core True
E, wfn = energy('wb97x-d/6-311+G*',return_wfn=True)
oeprop(wfn,"WIBERG_LOWDIN_INDICES")
clean()
--------------------------------------------------------------------------

    Molecular point group: c1

    Geometry (in Angstrom), charge = 0, multiplicity = 1:

       Center              X                  Y                   Z               Mass
    ------------   -----------------  -----------------  -----------------  -----------------
         O           -2.418012909414     0.212024846746    -0.375790884085    15.994914619570
         C            0.050203090586     0.238787846746    -0.207633884085    12.000000000000
         C            1.283443090586    -0.391985153254     0.445259115915    12.000000000000
         C           -1.260001909414    -0.384610153254     0.257006115915    12.000000000000
         C            2.591754090586     0.245971846746    -0.027548884085    12.000000000000
         H            0.029364090586     1.312030846746     0.014248115915     1.007825032230
         H            0.123170090586     0.136052846746    -1.296630884085     1.007825032230
         H            1.298016090586    -1.464029153254     0.225898115915     1.007825032230
         H            1.202342090586    -0.298757153254     1.532678115915     1.007825032230
         H           -1.265450909414    -1.453102153254     0.029697115915     1.007825032230
         H           -1.367468909414    -0.265583153254     1.337567115915     1.007825032230
         H            2.708904090586     0.139047846746    -1.108319884085     1.007825032230
         H            3.454887090586    -0.218961153254     0.451274115915     1.007825032230
         H            2.611700090586     1.312733846746     0.206563115915     1.007825032230
         H           -2.156285909414     0.910415846746    -0.990371884085     1.007825032230

  Charge       = 0
  Multiplicity = 1
  Basis Set: 6-311+G*
    Blend: 6-311+G*
  Basis Set: (6-311+G* AUX)
    Blend: HEAVY-AUG-CC-PVTZ-JKFIT

    Orbital Energies [Eh]
    ---------------------

    Doubly Occupied:

       1A    -19.241442     2A    -10.327203     3A    -10.287985
       4A    -10.287777     5A    -10.275961     6A     -1.114076
       7A     -0.904913     8A     -0.824052     9A     -0.735547
      10A     -0.691161    11A     -0.580785    12A     -0.578647
      13A     -0.531738    14A     -0.526064    15A     -0.478917
      16A     -0.473569    17A     -0.460060    18A     -0.428860
      19A     -0.420501    20A     -0.397668    21A     -0.357131

  @DF-RKS Final Energy:  -233.64483059910899

   => Energetics <=

    Nuclear Repulsion Energy =            184.3210895827539559
    One-Electron Energy =                -680.3660073636550578
    Two-Electron Energy =                 285.6486362383347455
    DFT Exchange-Correlation Energy =     -23.2414063904117860
    Empirical Dispersion Energy =          -0.0071426661308651
    VV10 Nonlocal Energy =                  0.0000000000000000
    Total Energy =                       -233.6448305991089853

  Dipole Moment: [D]
     X:     2.2583      Y:     0.4845      Z:    -0.2664     Total:     2.3250

*** Psi4 exiting successfully. Buy a developer a beer!
