                               Psi4 1.3.2 release

  ==> Input File <==

--------------------------------------------------------------------------
molecule {
0 1
 O   -2.497024    0.106710   -0.322072
 C   -0.052946    0.149727   -0.135693
 C    1.220255   -0.442387    0.522454
 C   -1.377077   -0.497423    0.350346
 C    2.532140    0.207482    0.037922
 H   -0.103262    1.227979    0.066273
 H    0.009469    0.030562   -1.225343
 H    1.265038   -1.521907    0.326663
 H    1.151808   -0.334849    1.613148
 H   -1.356390   -1.577300    0.158721
 H   -1.474446   -0.378181    1.436398
 H    2.658984    0.085754   -1.043257
 H    3.396446   -0.252638    0.528766
 H    2.552015    1.278828    0.264700
 H   -2.199932    0.796554   -0.943605
}
set optking {
  frozen_dihedral = ("
    2 4 1 15
    4 2 3 5
    3 2 4 1
    12 5 3 2
  ")
}
set {
  geom_maxiter 400
  g_convergence GAU_LOOSE
  dynamic_level 1
}
memory 700MB
set_num_threads(8)
psi4_io.set_default_path("/home/daniele/PSI4_sctatch/Psi4-1butanol_3D")
for _ in range(1):
  try:
    set opt_coordinates both
    optimize('wb97x-d/6-311G')
    break
  except OptimizationConvergenceError:
    break
  else:
    try:
      set opt_coordinates cartesian
      optimize('wb97x-d/6-311G')
      break
    except OptimizationConvergenceError:
      pass
clean()
--------------------------------------------------------------------------

    Molecular point group: c1
  Charge       = 0
  Multiplicity = 1
  Basis Set: 6-311G
    Blend: 6-311G
  Basis Set: (6-311G AUX)
    Blend: CC-PVTZ-JKFIT
  @DF-RKS Final Energy:  -233.57891757250857
    Total Energy =                       -233.5789175725085443
    Molecular point group: c1
  Basis Set: 6-311G
    Blend: 6-311G
  Basis Set: (6-311G AUX)
    Blend: CC-PVTZ-JKFIT
  Basis Set: 6-311G
    Blend: 6-311G
  Basis Set: (6-311G AUX)
    Blend: CC-PVTZ-JKFIT
  @DF-RKS Final Energy:  -233.58039481288299
    Total Energy =                       -233.5803948128829290
  Basis Set: 6-311G
    Blend: 6-311G
  Basis Set: (6-311G AUX)
    Blend: CC-PVTZ-JKFIT
  Charge       = 0
  Multiplicity = 1
  Basis Set: 6-311G
    Blend: 6-311G
  Basis Set: (6-311G AUX)
    Blend: CC-PVTZ-JKFIT

    Orbital Energies [Eh]
    ---------------------

    Doubly Occupied:

       1A    -19.230761     2A    -10.328589     3A    -10.290439
       4A    -10.290090     5A    -10.277170     6A     -1.116619
       7A     -0.908165     8A     -0.827024     9A     -0.737651
      10A     -0.694052    11A     -0.582719    12A     -0.575668
      13A     -0.532461    14A     -0.526837    15A     -0.476970
      16A     -0.470789    17A     -0.459830    18A     -0.429126
      19A     -0.419350    20A     -0.389605    21A     -0.347707

  @DF-RKS Final Energy:  -233.58045543400166

   => Energetics <=

    Nuclear Repulsion Energy =            184.3210877137588000
    One-Electron Energy =                -680.2621465468657789
    Two-Electron Energy =                 285.6097555800361647
    DFT Exchange-Correlation Energy =     -23.2420095148496344
    Empirical Dispersion Energy =          -0.0071426660811946
    VV10 Nonlocal Energy =                  0.0000000000000000
    Total Energy =                       -233.5804554340016352

  Dipole Moment: [D]
     X:     2.3382      Y:     0.5445      Z:    -0.3142     Total:     2.4212

    Molecular point group: c1
  Basis Set: 6-311G
    Blend: 6-311G
  Basis Set: (6-311G AUX)
    Blend: CC-PVTZ-JKFIT

  -Total Gradient:
     Atom            X                  Y                   Z
    ------   -----------------  -----------------  -----------------
       1        0.001094044535    -0.000145353779     0.000096231414
       2        0.000909232464    -0.000145633948     0.000297954684
       3       -0.000439861274     0.000036301898    -0.000213471010
       4       -0.001420276673     0.000573316397    -0.000451518445
       5        0.000170137838     0.000097123406    -0.000052903932
       6       -0.000200551098    -0.000086708066     0.000073402295
       7       -0.000202683389    -0.000084739538     0.000041382834
       8        0.000043977181     0.000110149767     0.000024608739
       9        0.000055024945    -0.000020309988    -0.000093998002
      10        0.000198934092    -0.000040754070    -0.000005780226
      11        0.000199185692    -0.000000970072     0.000075784938
      12       -0.000066456985     0.000007854123     0.000158968550
      13        0.000016339561    -0.000001052388     0.000002264595
      14       -0.000055424367    -0.000168187665    -0.000027351630
      15       -0.000378077349    -0.000094227055     0.000037245851

  **** Optimization is complete! (in 3 steps) ****
    Final optimized geometry and variables:
    Molecular point group: c1

    Geometry (in Angstrom), charge = 0, multiplicity = 1:

    O           -2.418012833329     0.212025063060    -0.375790589074
    C            0.050202963716     0.238787633121    -0.207633787382
    C            1.283443028926    -0.391985438130     0.445259013240
    C           -1.260001717038    -0.384610315831     0.257006093799
    C            2.591754040150     0.245972079950    -0.027549124899
    H            0.029364181049     1.312031450611     0.014247680373
    H            0.123169904414     0.136052759092    -1.296631281804
    H            1.298015656648    -1.464029181855     0.225898199790
    H            1.202342343384    -0.298757432543     1.532677740285
    H           -1.265450638593    -1.453101808082     0.029696663666
    H           -1.367469247338    -0.265583444237     1.337567362460
    H            2.708903921860     0.139048485711    -1.108320489247
    H            3.454887248245    -0.218960676285     0.451274013743
    H            2.611699734997     1.312733750838     0.206563396871
    H           -2.156285851580     0.910416225781    -0.990371607254

*** Psi4 exiting successfully. Buy a developer a beer!
