                               Psi4 1.3.2 release

  ==> Input File <==

--------------------------------------------------------------------------
molecule {
0 1
 O   -1.744360    0.278817    0.773760
 C    0.042025   -0.174590   -0.810022
 C    0.959762    0.021140    0.400596
 C   -1.429408   -0.412083   -0.457730
 C    2.414111    0.257102   -0.016317
 H    0.124881    0.718546   -1.438568
 H    0.393617   -1.014142   -1.417225
 H    0.902294   -0.856720    1.051656
 H    0.591209    0.859541    0.989136
 H   -2.073628   -0.069723   -1.274617
 H   -1.600872   -1.486890   -0.317751
 H    2.805704   -0.588320   -0.588119
 H    3.055055    0.396716    0.856173
 H    2.501096    1.149688   -0.641208
 H   -2.667885    0.138718    1.019755
}
memory 700MB
set_num_threads(8)
psi4_io.set_default_path("/home/daniele/PSI4_sctatch/Psi4-1butanol_3D")
set freeze_core True
E, wfn = energy('wb97x-d/6-311+G*',return_wfn=True)
oeprop(wfn,"WIBERG_LOWDIN_INDICES")
clean()
--------------------------------------------------------------------------

    Molecular point group: c1

    Geometry (in Angstrom), charge = 0, multiplicity = 1:

       Center              X                  Y                   Z               Mass
    ------------   -----------------  -----------------  -----------------  -----------------
         O           -1.744360109685     0.278816904152     0.773759958559    15.994914619570
         C            0.042024890315    -0.174590095848    -0.810022041441    12.000000000000
         C            0.959761890315     0.021139904152     0.400595958559    12.000000000000
         C           -1.429408109685    -0.412083095848    -0.457730041441    12.000000000000
         C            2.414110890315     0.257101904152    -0.016317041441    12.000000000000
         H            0.124880890315     0.718545904152    -1.438568041441     1.007825032230
         H            0.393616890315    -1.014142095848    -1.417225041441     1.007825032230
         H            0.902293890315    -0.856720095848     1.051655958559     1.007825032230
         H            0.591208890315     0.859540904152     0.989135958559     1.007825032230
         H           -2.073628109685    -0.069723095848    -1.274617041441     1.007825032230
         H           -1.600872109685    -1.486890095848    -0.317751041441     1.007825032230
         H            2.805703890315    -0.588320095848    -0.588119041441     1.007825032230
         H            3.055054890315     0.396715904152     0.856172958559     1.007825032230
         H            2.501095890315     1.149687904152    -0.641208041441     1.007825032230
         H           -2.667885109685     0.138717904152     1.019754958559     1.007825032230

  Charge       = 0
  Multiplicity = 1
  Basis Set: 6-311+G*
    Blend: 6-311+G*
  Basis Set: (6-311+G* AUX)
    Blend: HEAVY-AUG-CC-PVTZ-JKFIT

    Orbital Energies [Eh]
    ---------------------

    Doubly Occupied:

       1A    -19.245243     2A    -10.329177     3A    -10.274958
       4A    -10.265711     5A    -10.261743     6A     -1.117495
       7A     -0.888835     8A     -0.817304     9A     -0.723911
      10A     -0.667462    11A     -0.603281    12A     -0.561911
      13A     -0.519624    14A     -0.517493    15A     -0.473538
      16A     -0.455167    17A     -0.441025    18A     -0.416114
      19A     -0.405727    20A     -0.395342    21A     -0.357304

  @DF-RKS Final Energy:  -233.64293010207470

   => Energetics <=

    Nuclear Repulsion Energy =            188.0975900229350373
    One-Electron Energy =                -688.2879466298592206
    Two-Electron Energy =                 289.7948957500939287
    DFT Exchange-Correlation Energy =     -23.2405127788989176
    Empirical Dispersion Energy =          -0.0069564663455230
    VV10 Nonlocal Energy =                  0.0000000000000000
    Total Energy =                       -233.6429301020746720

  Dipole Moment: [D]
     X:    -1.2469      Y:    -0.9368      Z:    -0.8049     Total:     1.7550

*** Psi4 exiting successfully. Buy a developer a beer!
