                               Psi4 1.3.2 release

  ==> Input File <==

--------------------------------------------------------------------------
molecule {
0 1
 O   -2.267553    0.037048   -0.748113
 C    0.048621    0.309336   -0.139746
 C    1.248898   -0.447476    0.486391
 C   -1.342898   -0.194136    0.317656
 C    2.622748    0.075084    0.018965
 H    0.114918    1.384535    0.071606
 H    0.105720    0.208902   -1.232194
 H    1.174703   -1.516525    0.246053
 H    1.195047   -0.375733    1.580848
 H   -1.301967   -1.265323    0.552287
 H   -1.649592    0.317460    1.238351
 H    2.731883   -0.014555   -1.067336
 H    3.434144   -0.494339    0.484394
 H    2.757482    1.128157    0.288252
 H   -3.147078   -0.273525   -0.461996
}
set optking {
  frozen_dihedral = ("
    3 2 4 1
    2 4 1 15
    4 2 3 5
    12 5 3 2
  ")
}
set {
  geom_maxiter 400
  g_convergence GAU_LOOSE
  dynamic_level 1
}
memory 700MB
set_num_threads(8)
psi4_io.set_default_path("/home/daniele/PSI4_sctatch/Psi4-1butanol_3D")
for _ in range(1):
  try:
    set opt_coordinates both
    optimize('wb97x-d/6-311G')
    break
  except OptimizationConvergenceError:
    break
  else:
    try:
      set opt_coordinates cartesian
      optimize('wb97x-d/6-311G')
      break
    except OptimizationConvergenceError:
      pass
clean()
--------------------------------------------------------------------------

    Molecular point group: c1
  Charge       = 0
  Multiplicity = 1
  Basis Set: 6-311G
    Blend: 6-311G
  Basis Set: (6-311G AUX)
    Blend: CC-PVTZ-JKFIT
  @DF-RKS Final Energy:  -233.57856358325594
    Total Energy =                       -233.5785635832559706
    Molecular point group: c1
  Basis Set: 6-311G
    Blend: 6-311G
  Basis Set: (6-311G AUX)
    Blend: CC-PVTZ-JKFIT
  Basis Set: 6-311G
    Blend: 6-311G
  Basis Set: (6-311G AUX)
    Blend: CC-PVTZ-JKFIT
  @DF-RKS Final Energy:  -233.58018941872041
    Total Energy =                       -233.5801894187203800
  Basis Set: 6-311G
    Blend: 6-311G
  Basis Set: (6-311G AUX)
    Blend: CC-PVTZ-JKFIT
  Charge       = 0
  Multiplicity = 1
  Basis Set: 6-311G
    Blend: 6-311G
  Basis Set: (6-311G AUX)
    Blend: CC-PVTZ-JKFIT

    Orbital Energies [Eh]
    ---------------------

    Doubly Occupied:

       1A    -19.234451     2A    -10.329639     3A    -10.280120
       4A    -10.273659     5A    -10.268775     6A     -1.118854
       7A     -0.898592     8A     -0.822373     9A     -0.726210
      10A     -0.678327    11A     -0.598904    12A     -0.567509
      13A     -0.525651    14A     -0.518617    15A     -0.480944
      16A     -0.452263    17A     -0.435206    18A     -0.417519
      19A     -0.407456    20A     -0.399834    21A     -0.350756

  @DF-RKS Final Energy:  -233.58030144042183

   => Energetics <=

    Nuclear Repulsion Energy =            184.5107294384278021
    One-Electron Energy =                -680.8947324297280375
    Two-Electron Energy =                 286.0510956858418012
    DFT Exchange-Correlation Energy =     -23.2405050882105542
    Empirical Dispersion Energy =          -0.0068890467528492
    VV10 Nonlocal Energy =                  0.0000000000000000
    Total Energy =                       -233.5803014404218629

  Dipole Moment: [D]
     X:    -0.4051      Y:    -0.8415      Z:     1.6414     Total:     1.8885

    Molecular point group: c1
  Basis Set: 6-311G
    Blend: 6-311G
  Basis Set: (6-311G AUX)
    Blend: CC-PVTZ-JKFIT

  -Total Gradient:
     Atom            X                  Y                   Z
    ------   -----------------  -----------------  -----------------
       1        0.001012392308    -0.002711898792     0.000522414899
       2        0.001148484723     0.001671264105     0.002650500449
       3       -0.000569179845    -0.001528193889    -0.002121354253
       4       -0.001667994624     0.002849127881    -0.000659732620
       5        0.000104715602     0.000269442978    -0.000302868561
       6        0.000075013649    -0.000045831900    -0.000040505507
       7       -0.000007616556     0.000011148767     0.000189337823
       8       -0.000000106626     0.000210534082    -0.000039069010
       9        0.000071175833    -0.000017729433    -0.000015742673
      10       -0.000201989284    -0.000119670616    -0.000099157668
      11       -0.000071055234     0.000062209429     0.000231339313
      12        0.000019266418    -0.000182368566     0.000214602190
      13        0.000023195371    -0.000038416603     0.000024095819
      14       -0.000128879117    -0.000222472202    -0.000005788075
      15        0.000138931620    -0.000199392613    -0.000484749585

  **** Optimization is complete! (in 3 steps) ****
    Final optimized geometry and variables:
    Molecular point group: c1

    Geometry (in Angstrom), charge = 0, multiplicity = 1:

    O           -2.253684400491     0.133088597048    -0.704478538431
    C            0.058316576209     0.362120195922    -0.105730747053
    C            1.218939719245    -0.432669411356     0.500060803718
    C           -1.306055658793    -0.132077295768     0.356336342965
    C            2.585582149360     0.074331344191     0.033282703973
    H            0.172567885386     1.427456062384     0.108933352724
    H            0.081370241231     0.253712543554    -1.193228709823
    H            1.107514319975    -1.486904436402     0.227508690561
    H            1.167835355216    -0.389235832392     1.593795180618
    H           -1.255374007070    -1.211905936368     0.546257070048
    H           -1.609295482855     0.362743197074     1.286403106504
    H            2.674954139010     0.002298862797    -1.052926221603
    H            3.397462516901    -0.505281582061     0.476281807075
    H            2.728870727177     1.121003597214     0.310806944616
    H           -3.141473416114    -0.158510516336    -0.457593261976

*** Psi4 exiting successfully. Buy a developer a beer!
