                               Psi4 1.3.2 release

  ==> Input File <==

--------------------------------------------------------------------------
molecule {
0 1
 O   -2.182336    0.647903   -0.000425
 C    0.069910   -0.031869   -0.511449
 C    1.173126   -0.333619    0.507823
 C   -1.314125   -0.510069   -0.067795
 C    2.549613    0.154140    0.051740
 H   -0.002395    1.046886   -0.665706
 H    0.340842   -0.471922   -1.475546
 H    1.213264   -1.412536    0.693417
 H    0.911647    0.135970    1.461290
 H   -1.721260   -1.246444   -0.769813
 H   -1.248166   -0.983819    0.919739
 H    2.840491   -0.322318   -0.887531
 H    3.317815   -0.070035    0.793974
 H    2.543521    1.234177   -0.111198
 H   -3.071879    0.397118    0.282451
}
memory 700MB
set_num_threads(8)
psi4_io.set_default_path("/home/daniele/PSI4_sctatch/Psi4-1butanol_3D")
set freeze_core True
E, wfn = energy('wb97x-d/6-311+G*',return_wfn=True)
oeprop(wfn,"WIBERG_LOWDIN_INDICES")
clean()
--------------------------------------------------------------------------

    Molecular point group: c1

    Geometry (in Angstrom), charge = 0, multiplicity = 1:

       Center              X                  Y                   Z               Mass
    ------------   -----------------  -----------------  -----------------  -----------------
         O           -2.182335791219     0.647903283642    -0.000424913553    15.994914619570
         C            0.069910208781    -0.031868716358    -0.511448913553    12.000000000000
         C            1.173126208781    -0.333618716358     0.507823086447    12.000000000000
         C           -1.314124791219    -0.510068716358    -0.067794913553    12.000000000000
         C            2.549613208781     0.154140283642     0.051740086447    12.000000000000
         H           -0.002394791219     1.046886283642    -0.665705913553     1.007825032230
         H            0.340842208781    -0.471921716358    -1.475545913553     1.007825032230
         H            1.213264208781    -1.412535716358     0.693417086447     1.007825032230
         H            0.911647208781     0.135970283642     1.461290086447     1.007825032230
         H           -1.721259791219    -1.246443716358    -0.769812913553     1.007825032230
         H           -1.248165791219    -0.983818716358     0.919739086447     1.007825032230
         H            2.840491208781    -0.322317716358    -0.887530913553     1.007825032230
         H            3.317815208781    -0.070034716358     0.793974086447     1.007825032230
         H            2.543521208781     1.234177283642    -0.111197913553     1.007825032230
         H           -3.071878791219     0.397118283642     0.282451086447     1.007825032230

  Charge       = 0
  Multiplicity = 1
  Basis Set: 6-311+G*
    Blend: 6-311+G*
  Basis Set: (6-311+G* AUX)
    Blend: HEAVY-AUG-CC-PVTZ-JKFIT

    Orbital Energies [Eh]
    ---------------------

    Doubly Occupied:

       1A    -19.244965     2A    -10.328319     3A    -10.276847
       4A    -10.273210     5A    -10.267056     6A     -1.116093
       7A     -0.894767     8A     -0.819192     9A     -0.724505
      10A     -0.675537    11A     -0.607466    12A     -0.553729
      13A     -0.532054    14A     -0.517826    15A     -0.476403
      16A     -0.457550    17A     -0.441460    18A     -0.417071
      19A     -0.409857    20A     -0.405973    21A     -0.357678

  @DF-RKS Final Energy:  -233.64210331515272

   => Energetics <=

    Nuclear Repulsion Energy =            184.9178902750956581
    One-Electron Energy =                -681.8098380539568097
    Two-Electron Energy =                 286.4953673926329998
    DFT Exchange-Correlation Energy =     -23.2386711280066223
    Empirical Dispersion Energy =          -0.0068518009179774
    VV10 Nonlocal Energy =                  0.0000000000000000
    Total Energy =                       -233.6421033151527524

  Dipole Moment: [D]
     X:    -0.4184      Y:    -1.6672      Z:     0.4116     Total:     1.7675

*** Psi4 exiting successfully. Buy a developer a beer!
