                               Psi4 1.3.2 release

  ==> Input File <==

--------------------------------------------------------------------------
molecule {
0 1
 O   -2.324970    0.355281   -0.552488
 C    0.051287    0.212465   -0.226758
 C    1.252018   -0.408543    0.532293
 C   -1.330024   -0.295766    0.240492
 C    2.624166    0.109245    0.053837
 H    0.068479    1.304776   -0.116151
 H    0.145703    0.006068   -1.301117
 H    1.227308   -1.501047    0.423550
 H    1.150215   -0.206005    1.606733
 H   -1.390413   -1.385317    0.125258
 H   -1.473259   -0.075645    1.305949
 H    2.781739   -0.110047   -1.007696
 H    3.436362   -0.361951    0.617845
 H    2.707549    1.192678    0.191793
 H   -3.201085    0.042717   -0.258119
}
set optking {
  frozen_dihedral = ("
    4 2 3 5
    2 4 1 15
    3 2 4 1
    12 5 3 2
  ")
}
set {
  geom_maxiter 400
  g_convergence GAU_LOOSE
  dynamic_level 1
}
memory 700MB
set_num_threads(8)
psi4_io.set_default_path("/home/daniele/PSI4_sctatch/Psi4-1butanol_3D")
for _ in range(1):
  try:
    set opt_coordinates both
    optimize('wb97x-d/6-311G')
    break
  except OptimizationConvergenceError:
    break
  else:
    try:
      set opt_coordinates cartesian
      optimize('wb97x-d/6-311G')
      break
    except OptimizationConvergenceError:
      pass
clean()
--------------------------------------------------------------------------

    Molecular point group: c1
  Charge       = 0
  Multiplicity = 1
  Basis Set: 6-311G
    Blend: 6-311G
  Basis Set: (6-311G AUX)
    Blend: CC-PVTZ-JKFIT
  @DF-RKS Final Energy:  -233.58100541825107
    Total Energy =                       -233.5810054182510953
    Molecular point group: c1
  Basis Set: 6-311G
    Blend: 6-311G
  Basis Set: (6-311G AUX)
    Blend: CC-PVTZ-JKFIT
  Basis Set: 6-311G
    Blend: 6-311G
  Basis Set: (6-311G AUX)
    Blend: CC-PVTZ-JKFIT
  @DF-RKS Final Energy:  -233.58245272651467
    Total Energy =                       -233.5824527265146457
  Basis Set: 6-311G
    Blend: 6-311G
  Basis Set: (6-311G AUX)
    Blend: CC-PVTZ-JKFIT
  Charge       = 0
  Multiplicity = 1
  Basis Set: 6-311G
    Blend: 6-311G
  Basis Set: (6-311G AUX)
    Blend: CC-PVTZ-JKFIT

    Orbital Energies [Eh]
    ---------------------

    Doubly Occupied:

       1A    -19.234932     2A    -10.329709     3A    -10.280898
       4A    -10.273857     5A    -10.269266     6A     -1.119430
       7A     -0.899692     8A     -0.823371     9A     -0.726007
      10A     -0.678477    11A     -0.595230    12A     -0.575052
      13A     -0.522897    14A     -0.519231    15A     -0.484376
      16A     -0.450344    17A     -0.435234    18A     -0.418453
      19A     -0.408174    20A     -0.400064    21A     -0.351925

  @DF-RKS Final Energy:  -233.58254949385432

   => Energetics <=

    Nuclear Repulsion Energy =            184.5071103544040909
    One-Electron Energy =                -680.8693918488198733
    Two-Electron Energy =                 286.0279368092125765
    DFT Exchange-Correlation Energy =     -23.2412511139660936
    Empirical Dispersion Energy =          -0.0069536946849854
    VV10 Nonlocal Energy =                  0.0000000000000000
    Total Energy =                       -233.5825494938543159

  Dipole Moment: [D]
     X:    -0.3399      Y:    -1.2413      Z:     1.4030     Total:     1.9039

    Molecular point group: c1
  Basis Set: 6-311G
    Blend: 6-311G
  Basis Set: (6-311G AUX)
    Blend: CC-PVTZ-JKFIT

  -Total Gradient:
     Atom            X                  Y                   Z
    ------   -----------------  -----------------  -----------------
       1        0.000633752665    -0.000833377474     0.000877126297
       2        0.000795467073     0.000138375093     0.000047444933
       3       -0.000422175817     0.000023659911    -0.000185989122
       4       -0.000824867106     0.000607676714    -0.000688960189
       5        0.000140891777     0.000158151274    -0.000173430232
       6       -0.000015799747    -0.000078058780     0.000003901910
       7       -0.000019074454     0.000008472738     0.000074810064
       8        0.000030305631     0.000082040210    -0.000026127355
       9        0.000036985588     0.000016356187    -0.000078154964
      10       -0.000101996077    -0.000168385352    -0.000039514270
      11       -0.000117421856     0.000042533007     0.000161811310
      12       -0.000077404573     0.000008679957     0.000188411534
      13        0.000021567161    -0.000043138760     0.000055770329
      14       -0.000067141986    -0.000177606259    -0.000000901606
      15       -0.000086610144     0.000205903338    -0.000207184119

  **** Optimization is complete! (in 3 steps) ****
    Final optimized geometry and variables:
    Molecular point group: c1

    Geometry (in Angstrom), charge = 0, multiplicity = 1:

    O           -2.288828109102     0.351970946209    -0.594377637879
    C            0.068246427287     0.211042422299    -0.228935919247
    C            1.225539136788    -0.406471323548     0.560777467690
    C           -1.288486872094    -0.291809910924     0.226950214846
    C            2.590881129087     0.105489975952     0.095199545786
    H            0.085551037552     1.299443926371    -0.129460372203
    H            0.179923176129    -0.013029429435    -1.292983771599
    H            1.193000718904    -1.496803436772     0.463205219542
    H            1.098464383079    -0.186852384015     1.626190339670
    H           -1.339202304032    -1.382184188812     0.115159052714
    H           -1.440769919466    -0.047977991855     1.285879117139
    H            2.754548478450    -0.129622819527    -0.958785086249
    H            3.402044303513    -0.344198385157     0.670615353655
    H            2.657907586027     1.189772281393     0.208523876289
    H           -3.178372769429     0.070836085700    -0.342101764643

*** Psi4 exiting successfully. Buy a developer a beer!
