                               Psi4 1.3.2 release

  ==> Input File <==

--------------------------------------------------------------------------
molecule {
0 1
 O   -2.183664    0.709440    0.140537
 C    0.072381    0.032571   -0.404227
 C    1.215031   -0.295557    0.592331
 C   -1.338161   -0.439885    0.043310
 C    2.603428    0.187923    0.125781
 H    0.044623    1.114964   -0.587128
 H    0.290445   -0.426100   -1.377810
 H    1.253720   -1.379871    0.761215
 H    0.989706    0.158123    1.566843
 H   -1.739761   -1.157508   -0.683347
 H   -1.289901   -0.970889    1.002071
 H    2.883208   -0.271680   -0.828249
 H    3.372485   -0.072150    0.860847
 H    2.619840    1.275463   -0.003922
 H   -3.068305    0.414065    0.427170
}
set optking {
  frozen_dihedral = ("
    3 2 4 1
    2 4 1 15
    4 2 3 5
    12 5 3 2
  ")
}
set {
  geom_maxiter 400
  g_convergence GAU_LOOSE
  dynamic_level 1
}
memory 700MB
set_num_threads(8)
psi4_io.set_default_path("/home/daniele/PSI4_sctatch/Psi4-1butanol_3D")
for _ in range(1):
  try:
    set opt_coordinates both
    optimize('wb97x-d/6-311G')
    break
  except OptimizationConvergenceError:
    break
  else:
    try:
      set opt_coordinates cartesian
      optimize('wb97x-d/6-311G')
      break
    except OptimizationConvergenceError:
      pass
clean()
--------------------------------------------------------------------------

    Molecular point group: c1
  Charge       = 0
  Multiplicity = 1
  Basis Set: 6-311G
    Blend: 6-311G
  Basis Set: (6-311G AUX)
    Blend: CC-PVTZ-JKFIT
  @DF-RKS Final Energy:  -233.57578857925336
    Total Energy =                       -233.5757885792533841
    Molecular point group: c1
  Basis Set: 6-311G
    Blend: 6-311G
  Basis Set: (6-311G AUX)
    Blend: CC-PVTZ-JKFIT
  Basis Set: 6-311G
    Blend: 6-311G
  Basis Set: (6-311G AUX)
    Blend: CC-PVTZ-JKFIT
  @DF-RKS Final Energy:  -233.57754383550616
    Total Energy =                       -233.5775438355061624
  Basis Set: 6-311G
    Blend: 6-311G
  Basis Set: (6-311G AUX)
    Blend: CC-PVTZ-JKFIT
  Charge       = 0
  Multiplicity = 1
  Basis Set: 6-311G
    Blend: 6-311G
  Basis Set: (6-311G AUX)
    Blend: CC-PVTZ-JKFIT

    Orbital Energies [Eh]
    ---------------------

    Doubly Occupied:

       1A    -19.233640     2A    -10.329590     3A    -10.277648
       4A    -10.273663     5A    -10.267437     6A     -1.118011
       7A     -0.896561     8A     -0.821114     9A     -0.726353
      10A     -0.677080    11A     -0.603681    12A     -0.553837
      13A     -0.532281    14A     -0.517775    15A     -0.474633
      16A     -0.456322    17A     -0.435309    18A     -0.415319
      19A     -0.406874    20A     -0.399217    21A     -0.348903

  @DF-RKS Final Energy:  -233.57767572194163

   => Energetics <=

    Nuclear Repulsion Energy =            184.9178889130928667
    One-Electron Energy =                -681.7451126995283630
    Two-Electron Energy =                 286.4962372356975493
    DFT Exchange-Correlation Energy =     -23.2398373702957102
    Empirical Dispersion Energy =          -0.0068518009079045
    VV10 Nonlocal Energy =                  0.0000000000000000
    Total Energy =                       -233.5776757219415742

  Dipole Moment: [D]
     X:    -0.5217      Y:    -1.7404      Z:     0.4330     Total:     1.8678

    Molecular point group: c1
  Basis Set: 6-311G
    Blend: 6-311G
  Basis Set: (6-311G AUX)
    Blend: CC-PVTZ-JKFIT

  -Total Gradient:
     Atom            X                  Y                   Z
    ------   -----------------  -----------------  -----------------
       1        0.000669488263    -0.001952609862     0.000271388132
       2        0.000471377735     0.000273236619     0.000393040160
       3       -0.000540687215     0.000426848641    -0.000082102268
       4       -0.001075596486     0.001473125478    -0.000292945499
       5        0.000305678306    -0.000118712486    -0.000289349307
       6       -0.000020021130    -0.000216818031     0.000043318393
       7        0.000170174789    -0.000019489515    -0.000011896292
       8        0.000047356925     0.000105383956    -0.000049503867
       9        0.000077127923    -0.000019177524    -0.000158638597
      10       -0.000269346346    -0.000223811934    -0.000228577520
      11       -0.000028132295     0.000063029232     0.000315976520
      12       -0.000152246273     0.000054090829     0.000195981646
      13        0.000020246778    -0.000005675181     0.000023249281
      14       -0.000083800604    -0.000201828585     0.000036733237
      15        0.000332878806     0.000304324182    -0.000082781102

  **** Optimization is complete! (in 3 steps) ****
    Final optimized geometry and variables:
    Molecular point group: c1

    Geometry (in Angstrom), charge = 0, multiplicity = 1:

    O           -2.182335579108     0.647903382064    -0.000425026203
    C            0.069909767072    -0.031868606406    -0.511448531887
    C            1.173126139378    -0.333618973409     0.507822973312
    C           -1.314124570932    -0.510068788221    -0.067794804833
    C            2.549613423533     0.154140471466     0.051739909425
    H           -0.002395188848     1.046886461101    -0.665706075164
    H            0.340842337394    -0.471922123490    -1.475546282064
    H            1.213263546940    -1.412536142394     0.693417187534
    H            0.911646538550     0.135970404625     1.461289778964
    H           -1.721260340574    -1.246443507499    -0.769812608429
    H           -1.248165586651    -0.983819093495     0.919739485372
    H            2.840491237883    -0.322317716661    -0.887530500707
    H            3.317814914761    -0.070035106467     0.793974050942
    H            2.543521125373     1.234177178127    -0.111198411735
    H           -3.071878957594     0.397118291304     0.282450643517

*** Psi4 exiting successfully. Buy a developer a beer!
