                               Psi4 1.3.2 release

  ==> Input File <==

--------------------------------------------------------------------------
molecule {
0 1
 O   -2.278000    0.537728   -0.335591
 C    0.075725    0.073476   -0.367616
 C    1.216024   -0.377997    0.549769
 C   -1.288094   -0.429322    0.086979
 C    2.581373    0.135953    0.086813
 H    0.026398    1.165476   -0.363511
 H    0.272271   -0.230951   -1.398521
 H    1.237263   -1.472141    0.605372
 H    1.016636   -0.021133    1.565213
 H   -1.502485   -1.419191   -0.332539
 H   -1.296738   -0.514315    1.181223
 H    2.812919   -0.224042   -0.918157
 H    3.378902   -0.193461    0.755094
 H    2.594248    1.227788    0.058606
 H   -3.165381    0.266819   -0.064866
}
memory 700MB
set_num_threads(8)
psi4_io.set_default_path("/home/daniele/PSI4_sctatch/Psi4-1butanol_3D")
set freeze_core True
E, wfn = energy('wb97x-d/6-311+G*',return_wfn=True)
oeprop(wfn,"WIBERG_LOWDIN_INDICES")
clean()
--------------------------------------------------------------------------

    Molecular point group: c1

    Geometry (in Angstrom), charge = 0, multiplicity = 1:

       Center              X                  Y                   Z               Mass
    ------------   -----------------  -----------------  -----------------  -----------------
         O           -2.278000073955     0.537727880573    -0.335591237198    15.994914619570
         C            0.075724926045     0.073475880573    -0.367616237198    12.000000000000
         C            1.216023926045    -0.377997119427     0.549768762802    12.000000000000
         C           -1.288094073955    -0.429322119427     0.086978762802    12.000000000000
         C            2.581372926045     0.135952880573     0.086812762802    12.000000000000
         H            0.026397926045     1.165475880573    -0.363511237198     1.007825032230
         H            0.272270926045    -0.230951119427    -1.398521237198     1.007825032230
         H            1.237262926045    -1.472141119427     0.605371762802     1.007825032230
         H            1.016635926045    -0.021133119427     1.565212762802     1.007825032230
         H           -1.502485073955    -1.419191119427    -0.332539237198     1.007825032230
         H           -1.296738073955    -0.514315119427     1.181222762802     1.007825032230
         H            2.812918926045    -0.224042119427    -0.918157237198     1.007825032230
         H            3.378901926045    -0.193461119427     0.755093762802     1.007825032230
         H            2.594247926045     1.227787880573     0.058605762802     1.007825032230
         H           -3.165381073955     0.266818880573    -0.064866237198     1.007825032230

  Charge       = 0
  Multiplicity = 1
  Basis Set: 6-311+G*
    Blend: 6-311+G*
  Basis Set: (6-311+G* AUX)
    Blend: HEAVY-AUG-CC-PVTZ-JKFIT

    Orbital Energies [Eh]
    ---------------------

    Doubly Occupied:

       1A    -19.244944     2A    -10.328117     3A    -10.279220
       4A    -10.273103     5A    -10.268401     6A     -1.116390
       7A     -0.896656     8A     -0.820311     9A     -0.724285
      10A     -0.676774    11A     -0.602285    12A     -0.567280
      13A     -0.525131    14A     -0.518637    15A     -0.482680
      16A     -0.453248    17A     -0.440771    18A     -0.419034
      19A     -0.410409    20A     -0.406598    21A     -0.359441

  @DF-RKS Final Energy:  -233.64460253605614

   => Energetics <=

    Nuclear Repulsion Energy =            184.5137558676165099
    One-Electron Energy =                -680.9733150308228460
    Two-Electron Energy =                 286.0617557655642713
    DFT Exchange-Correlation Energy =     -23.2399099442375743
    Empirical Dispersion Energy =          -0.0068891941764820
    VV10 Nonlocal Energy =                  0.0000000000000000
    Total Energy =                       -233.6446025360561407

  Dipole Moment: [D]
     X:    -0.2491      Y:    -1.5000      Z:     0.9528     Total:     1.7944

*** Psi4 exiting successfully. Buy a developer a beer!
