                               Psi4 1.3.2 release

  ==> Input File <==

--------------------------------------------------------------------------
molecule {
0 1
 O   -2.429238    0.046303   -0.512710
 C   -0.024814    0.103354   -0.214024
 C    1.225722   -0.431914    0.529812
 C   -1.360954   -0.521791    0.255534
 C    2.548944    0.202068    0.055034
 H   -0.088101    1.192188   -0.088444
 H    0.076726   -0.083328   -1.291193
 H    1.287835   -1.520961    0.403113
 H    1.114176   -0.257260    1.608173
 H   -1.332737   -1.610602    0.126713
 H   -1.510411   -0.335303    1.326491
 H    2.718547    0.013874   -1.010672
 H    3.398266   -0.215287    0.606390
 H    2.548536    1.285772    0.214137
 H   -2.447420    1.011798   -0.372933
}
set optking {
  frozen_dihedral = ("
    2 4 1 15
    4 2 3 5
    3 2 4 1
    12 5 3 2
  ")
}
set {
  geom_maxiter 400
  g_convergence GAU_LOOSE
  dynamic_level 1
}
memory 700MB
set_num_threads(8)
psi4_io.set_default_path("/home/daniele/PSI4_sctatch/Psi4-1butanol_3D")
for _ in range(1):
  try:
    set opt_coordinates both
    optimize('wb97x-d/6-311G')
    break
  except OptimizationConvergenceError:
    break
  else:
    try:
      set opt_coordinates cartesian
      optimize('wb97x-d/6-311G')
      break
    except OptimizationConvergenceError:
      pass
clean()
--------------------------------------------------------------------------

    Molecular point group: c1
  Charge       = 0
  Multiplicity = 1
  Basis Set: 6-311G
    Blend: 6-311G
  Basis Set: (6-311G AUX)
    Blend: CC-PVTZ-JKFIT
  @DF-RKS Final Energy:  -233.58045162172280
    Total Energy =                       -233.5804516217228297
    Molecular point group: c1
  Basis Set: 6-311G
    Blend: 6-311G
  Basis Set: (6-311G AUX)
    Blend: CC-PVTZ-JKFIT
  Basis Set: 6-311G
    Blend: 6-311G
  Basis Set: (6-311G AUX)
    Blend: CC-PVTZ-JKFIT
  @DF-RKS Final Energy:  -233.58251438688788
    Total Energy =                       -233.5825143868878797
  Basis Set: 6-311G
    Blend: 6-311G
  Basis Set: (6-311G AUX)
    Blend: CC-PVTZ-JKFIT
  Charge       = 0
  Multiplicity = 1
  Basis Set: 6-311G
    Blend: 6-311G
  Basis Set: (6-311G AUX)
    Blend: CC-PVTZ-JKFIT

    Orbital Energies [Eh]
    ---------------------

    Doubly Occupied:

       1A    -19.234984     2A    -10.329545     3A    -10.286512
       4A    -10.282767     5A    -10.274312     6A     -1.119469
       7A     -0.904276     8A     -0.824964     9A     -0.734573
      10A     -0.687965    11A     -0.596190    12A     -0.564238
      13A     -0.532910    14A     -0.520693    15A     -0.478370
      16A     -0.466265    17A     -0.450472    18A     -0.425455
      19A     -0.415543    20A     -0.396618    21A     -0.349923

  @DF-RKS Final Energy:  -233.58272300043791

   => Energetics <=

    Nuclear Repulsion Energy =            184.1671442358245088
    One-Electron Energy =                -680.0316631002413033
    Two-Electron Energy =                 285.5286683988234699
    DFT Exchange-Correlation Energy =     -23.2397779257440078
    Empirical Dispersion Energy =          -0.0070946091005298
    VV10 Nonlocal Energy =                  0.0000000000000000
    Total Energy =                       -233.5827230004379089

  Dipole Moment: [D]
     X:     1.5343      Y:     1.1487      Z:     0.9846     Total:     2.1548

    Molecular point group: c1
  Basis Set: 6-311G
    Blend: 6-311G
  Basis Set: (6-311G AUX)
    Blend: CC-PVTZ-JKFIT

  -Total Gradient:
     Atom            X                  Y                   Z
    ------   -----------------  -----------------  -----------------
       1        0.000145683704    -0.000169691801     0.000646683659
       2        0.000955115447    -0.000543075871     0.000376585948
       3       -0.000623723875     0.000466492251    -0.000312815983
       4       -0.000170988618    -0.000107756718    -0.001130469942
       5        0.000118192265     0.000106322935     0.000072024550
       6       -0.000133693670     0.000249973889    -0.000007777567
       7       -0.000277103141    -0.000164597784     0.000139631109
       8        0.000081657864    -0.000065587124     0.000097209847
       9       -0.000037041207     0.000076386072    -0.000053818696
      10       -0.000123665151    -0.000093474794     0.000000545935
      11       -0.000062009216     0.000171191105     0.000144764025
      12       -0.000074818765    -0.000066699385     0.000099217170
      13        0.000083964731     0.000024018011     0.000040130252
      14       -0.000092721381    -0.000065639562    -0.000056418559
      15        0.000101172411     0.000252833895    -0.000035422068

  **** Optimization is complete! (in 3 steps) ****
    Final optimized geometry and variables:
    Molecular point group: c1

    Geometry (in Angstrom), charge = 0, multiplicity = 1:

    O           -2.394846219786     0.090290941141    -0.509340559776
    C            0.059177113258     0.194899094184    -0.256446442163
    C            1.271254297121    -0.285942795326     0.546018519282
    C           -1.259380709582    -0.363390235907     0.263955993060
    C            2.591398659332     0.282410611673     0.019566388396
    H            0.019445460041     1.291618113382    -0.224404202194
    H            0.164552758665    -0.086870590732    -1.307401397156
    H            1.309284771539    -1.380050695048     0.522389475229
    H            1.145324584044    -0.004281178178     1.596816855876
    H           -1.276793954662    -1.448552112462     0.180854973483
    H           -1.385379041833    -0.100972993355     1.321782426857
    H            2.754155130557    -0.013087412560    -1.019388956271
    H            3.439825117308    -0.072873209552     0.606902166970
    H            2.588586241256     1.374343271677     0.058829947501
    H           -2.452382072877     1.055996313162    -0.476514525330

*** Psi4 exiting successfully. Buy a developer a beer!
