                               Psi4 1.3.2 release

  ==> Input File <==

--------------------------------------------------------------------------
molecule {
0 1
 O   -2.184448    0.178721   -0.571090
 C   -0.099601    0.642312    0.473093
 C    1.354846    0.253049    0.818772
 C   -0.864980   -0.373863   -0.355320
 C    2.076762   -0.628251   -0.208916
 H   -0.664203    0.836845    1.386070
 H   -0.107943    1.574798   -0.098419
 H    1.357765   -0.283133    1.773573
 H    1.931633    1.164958    0.986332
 H   -0.363284   -0.539495   -1.314190
 H   -0.927584   -1.334851    0.172846
 H    1.562196   -1.579009   -0.357334
 H    3.092155   -0.849162    0.123920
 H    2.146801   -0.133700   -1.181270
 H   -2.733227   -0.422595   -1.091669
}
memory 700MB
set_num_threads(8)
psi4_io.set_default_path("/home/daniele/PSI4_sctatch/Psi4-1butanol_3D")
set freeze_core True
E, wfn = energy('wb97x-d/6-311+G*',return_wfn=True)
oeprop(wfn,"WIBERG_LOWDIN_INDICES")
clean()
--------------------------------------------------------------------------

    Molecular point group: c1

    Geometry (in Angstrom), charge = 0, multiplicity = 1:

       Center              X                  Y                   Z               Mass
    ------------   -----------------  -----------------  -----------------  -----------------
         O           -2.184448025484     0.178721023376    -0.571090001613    15.994914619570
         C           -0.099601025484     0.642312023376     0.473092998387    12.000000000000
         C            1.354845974516     0.253049023376     0.818771998387    12.000000000000
         C           -0.864980025484    -0.373862976624    -0.355320001613    12.000000000000
         C            2.076761974516    -0.628250976624    -0.208916001613    12.000000000000
         H           -0.664203025484     0.836845023376     1.386069998387     1.007825032230
         H           -0.107943025484     1.574798023376    -0.098419001613     1.007825032230
         H            1.357764974516    -0.283132976624     1.773572998387     1.007825032230
         H            1.931632974516     1.164958023376     0.986331998387     1.007825032230
         H           -0.363284025484    -0.539494976624    -1.314190001613     1.007825032230
         H           -0.927584025484    -1.334850976624     0.172845998387     1.007825032230
         H            1.562195974516    -1.579008976624    -0.357334001613     1.007825032230
         H            3.092154974516    -0.849161976624     0.123919998387     1.007825032230
         H            2.146800974516    -0.133699976624    -1.181270001613     1.007825032230
         H           -2.733227025484    -0.422594976624    -1.091669001613     1.007825032230

  Charge       = 0
  Multiplicity = 1
  Basis Set: 6-311+G*
    Blend: 6-311+G*
  Basis Set: (6-311+G* AUX)
    Blend: HEAVY-AUG-CC-PVTZ-JKFIT

    Orbital Energies [Eh]
    ---------------------

    Doubly Occupied:

       1A    -19.244635     2A    -10.327290     3A    -10.279941
       4A    -10.272799     5A    -10.271504     6A     -1.116217
       7A     -0.895408     8A     -0.816644     9A     -0.740940
      10A     -0.660688    11A     -0.604418    12A     -0.569176
      13A     -0.529011    14A     -0.509849    15A     -0.487417
      16A     -0.461254    17A     -0.443581    18A     -0.421026
      19A     -0.405616    20A     -0.399485    21A     -0.360003

  @DF-RKS Final Energy:  -233.64255024646224

   => Energetics <=

    Nuclear Repulsion Energy =            187.5011275996398865
    One-Electron Energy =                -686.9360639204961672
    Two-Electron Energy =                 289.0406310727739765
    DFT Exchange-Correlation Energy =     -23.2408139409163148
    Empirical Dispersion Energy =          -0.0074310574635524
    VV10 Nonlocal Energy =                  0.0000000000000000
    Total Energy =                       -233.6425502464622070

  Dipole Moment: [D]
     X:     0.7093      Y:    -1.5349      Z:    -0.5235     Total:     1.7700

*** Psi4 exiting successfully. Buy a developer a beer!
