                               Psi4 1.3.2 release

  ==> Input File <==

--------------------------------------------------------------------------
molecule {
0 1
 O   -1.592744   -1.181318   -0.194021
 C    0.064306    0.585648    0.099426
 C    1.132143   -0.546373    0.161770
 C   -1.415716    0.151696    0.295764
 C    2.578442   -0.048606   -0.036185
 H    0.293785    1.366803    0.836189
 H    0.131202    1.071552   -0.883465
 H    0.912365   -1.303598   -0.602474
 H    1.058628   -1.062982    1.127796
 H   -1.666774    0.196258    1.363435
 H   -2.087322    0.858419   -0.207636
 H    2.699552    0.437241   -1.010269
 H    3.285242   -0.883676    0.010725
 H    2.859118    0.669768    0.741368
 H   -2.527153   -1.431924   -0.067001
}
set optking {
  frozen_dihedral = ("
    3 2 4 1
    2 4 1 15
    4 2 3 5
    12 5 3 2
  ")
}
set {
  geom_maxiter 400
  g_convergence GAU_LOOSE
  dynamic_level 1
}
memory 700MB
set_num_threads(8)
psi4_io.set_default_path("/home/daniele/PSI4_sctatch/Psi4-1butanol_3D")
for _ in range(1):
  try:
    set opt_coordinates both
    optimize('wb97x-d/6-311G')
    break
  except OptimizationConvergenceError:
    break
  else:
    try:
      set opt_coordinates cartesian
      optimize('wb97x-d/6-311G')
      break
    except OptimizationConvergenceError:
      pass
clean()
--------------------------------------------------------------------------

    Molecular point group: c1
  Charge       = 0
  Multiplicity = 1
  Basis Set: 6-311G
    Blend: 6-311G
  Basis Set: (6-311G AUX)
    Blend: CC-PVTZ-JKFIT
  @DF-RKS Final Energy:  -233.57661700696175
    Total Energy =                       -233.5766170069617544
    Molecular point group: c1
  Basis Set: 6-311G
    Blend: 6-311G
  Basis Set: (6-311G AUX)
    Blend: CC-PVTZ-JKFIT
  Basis Set: 6-311G
    Blend: 6-311G
  Basis Set: (6-311G AUX)
    Blend: CC-PVTZ-JKFIT
  @DF-RKS Final Energy:  -233.57854112973129
    Total Energy =                       -233.5785411297312919
  Basis Set: 6-311G
    Blend: 6-311G
  Basis Set: (6-311G AUX)
    Blend: CC-PVTZ-JKFIT
  Charge       = 0
  Multiplicity = 1
  Basis Set: 6-311G
    Blend: 6-311G
  Basis Set: (6-311G AUX)
    Blend: CC-PVTZ-JKFIT

    Orbital Energies [Eh]
    ---------------------

    Doubly Occupied:

       1A    -19.235818     2A    -10.331244     3A    -10.275900
       4A    -10.265124     5A    -10.261400     6A     -1.120703
       7A     -0.890207     8A     -0.819337     9A     -0.725679
      10A     -0.668271    11A     -0.600372    12A     -0.562793
      13A     -0.519386    14A     -0.516736    15A     -0.472787
      16A     -0.452318    17A     -0.433967    18A     -0.414448
      19A     -0.402516    20A     -0.389484    21A     -0.349677

  @DF-RKS Final Energy:  -233.57873258329826

   => Energetics <=

    Nuclear Repulsion Energy =            188.0978185851529361
    One-Electron Energy =                -688.2211981955260853
    Two-Electron Energy =                 289.7913951483356527
    DFT Exchange-Correlation Energy =     -23.2397911747051822
    Empirical Dispersion Energy =          -0.0069569465555489
    VV10 Nonlocal Energy =                  0.0000000000000000
    Total Energy =                       -233.5787325832982333

  Dipole Moment: [D]
     X:    -1.5304      Y:     0.8505      Z:     0.7829     Total:     1.9180

    Molecular point group: c1
  Basis Set: 6-311G
    Blend: 6-311G
  Basis Set: (6-311G AUX)
    Blend: CC-PVTZ-JKFIT

  -Total Gradient:
     Atom            X                  Y                   Z
    ------   -----------------  -----------------  -----------------
       1        0.000458756913    -0.000562967079     0.004990026236
       2        0.002171787192    -0.000267085989     0.007641314001
       3       -0.000864001556     0.000078109284    -0.004837671457
       4       -0.002016183093     0.001103740796    -0.007989032364
       5        0.000442846949     0.000259932301     0.000098089097
       6        0.000029204641    -0.000150549100    -0.000139708413
       7        0.000133690918    -0.000007327086     0.000044504261
       8        0.000095736012     0.000236010149     0.000203319905
       9        0.000028492442     0.000103947751    -0.000128732742
      10       -0.000161290900    -0.000261618215     0.000070875045
      11       -0.000188252302     0.000173412732     0.000013781192
      12       -0.000161808224    -0.000114404604     0.000156584917
      13       -0.000060196356    -0.000074688209    -0.000011691318
      14       -0.000010358247    -0.000080093516    -0.000137881994
      15        0.000182322227    -0.000324041562    -0.000093265463

  **** Optimization is complete! (in 3 steps) ****
    Final optimized geometry and variables:
    Molecular point group: c1

    Geometry (in Angstrom), charge = 0, multiplicity = 1:

    O           -1.675122091719    -0.904316934605    -0.309613056772
    C           -0.016005348082     0.823646577490     0.097544345021
    C            0.980044458590    -0.339773768553     0.073249987120
    C           -1.477307511432     0.402516086944     0.278712281726
    C            2.421499548715     0.144665142110    -0.105864043897
    H            0.244441360172     1.525623111605     0.895389854672
    H            0.089406953598     1.372169140477    -0.844575211090
    H            0.704502161379    -1.021933220905    -0.729174713322
    H            0.898445269448    -0.913158947791     1.001863733092
    H           -1.710861057963     0.350645811038     1.349653009379
    H           -2.143173663789     1.142585338756    -0.177883335287
    H            2.534985249424     0.694279166771    -1.043843800541
    H            3.118440591421    -0.695291908578    -0.124897277435
    H            2.721082297616     0.810233274137     0.707935490164
    H           -2.592847325812    -1.189569561019    -0.212377067173

*** Psi4 exiting successfully. Buy a developer a beer!
