                               Psi4 1.3.2 release

  ==> Input File <==

--------------------------------------------------------------------------
molecule {
0 1
 O   -1.825837    0.488467    0.629518
 C    0.025689   -0.115994   -0.760273
 C    1.011312   -0.160579    0.409878
 C   -1.396756   -0.469763   -0.365349
 C    2.437513    0.203384   -0.010284
 H    0.025380    0.885795   -1.199670
 H    0.347059   -0.811125   -1.543500
 H    1.003048   -1.165528    0.846719
 H    0.660129    0.520255    1.186201
 H   -2.050951   -0.431458   -1.244301
 H   -1.426206   -1.487105    0.045848
 H    2.811987   -0.485250   -0.772115
 H    3.122399    0.167994    0.839029
 H    2.473186    1.212782   -0.426943
 H   -2.728176    0.306149    0.922506
}
memory 700MB
set_num_threads(8)
psi4_io.set_default_path("/home/daniele/PSI4_sctatch/Psi4-1butanol_3D")
set freeze_core True
E, wfn = energy('wb97x-d/6-311+G*',return_wfn=True)
oeprop(wfn,"WIBERG_LOWDIN_INDICES")
clean()
--------------------------------------------------------------------------

    Molecular point group: c1

    Geometry (in Angstrom), charge = 0, multiplicity = 1:

       Center              X                  Y                   Z               Mass
    ------------   -----------------  -----------------  -----------------  -----------------
         O           -1.825837073275     0.488467022938     0.629518129606    15.994914619570
         C            0.025688926725    -0.115993977062    -0.760272870394    12.000000000000
         C            1.011311926725    -0.160578977062     0.409878129606    12.000000000000
         C           -1.396756073275    -0.469762977062    -0.365348870394    12.000000000000
         C            2.437512926725     0.203384022938    -0.010283870394    12.000000000000
         H            0.025379926725     0.885795022938    -1.199669870394     1.007825032230
         H            0.347058926725    -0.811124977062    -1.543499870394     1.007825032230
         H            1.003047926725    -1.165527977062     0.846719129606     1.007825032230
         H            0.660128926725     0.520255022938     1.186201129606     1.007825032230
         H           -2.050951073275    -0.431457977062    -1.244300870394     1.007825032230
         H           -1.426206073275    -1.487104977062     0.045848129606     1.007825032230
         H            2.811986926725    -0.485249977062    -0.772114870394     1.007825032230
         H            3.122398926725     0.167994022938     0.839029129606     1.007825032230
         H            2.473185926725     1.212782022938    -0.426942870394     1.007825032230
         H           -2.728176073275     0.306149022938     0.922506129606     1.007825032230

  Charge       = 0
  Multiplicity = 1
  Basis Set: 6-311+G*
    Blend: 6-311+G*
  Basis Set: (6-311+G* AUX)
    Blend: HEAVY-AUG-CC-PVTZ-JKFIT

    Orbital Energies [Eh]
    ---------------------

    Doubly Occupied:

       1A    -19.245438     2A    -10.328617     3A    -10.274154
       4A    -10.268235     5A    -10.263160     6A     -1.117495
       7A     -0.891697     8A     -0.819197     9A     -0.723318
      10A     -0.668636    11A     -0.610578    12A     -0.552304
      13A     -0.528156    14A     -0.516661    15A     -0.471405
      16A     -0.460304    17A     -0.441238    18A     -0.416099
      19A     -0.406648    20A     -0.399103    21A     -0.359557

  @DF-RKS Final Energy:  -233.64713370114609

   => Energetics <=

    Nuclear Repulsion Energy =            187.7589275912152118
    One-Electron Energy =                -687.5710735516045133
    Two-Electron Energy =                 289.4135568810251016
    DFT Exchange-Correlation Energy =     -23.2415113496418613
    Empirical Dispersion Energy =          -0.0070332721399922
    VV10 Nonlocal Energy =                  0.0000000000000000
    Total Energy =                       -233.6471337011460889

  Dipole Moment: [D]
     X:    -1.0497      Y:    -1.3017      Z:    -0.5275     Total:     1.7534

*** Psi4 exiting successfully. Buy a developer a beer!
