                               Psi4 1.3.2 release

  ==> Input File <==

--------------------------------------------------------------------------
molecule {
0 1
 O   -2.348490    0.165086   -0.622429
 C    0.028088    0.137012   -0.255607
 C    1.243240   -0.418417    0.530549
 C   -1.336076   -0.430140    0.195051
 C    2.596772    0.160730    0.071230
 H   -0.007380    1.230096   -0.160045
 H    0.149973   -0.076948   -1.325687
 H    1.272952   -1.511783    0.433252
 H    1.112924   -0.211529    1.601096
 H   -1.346642   -1.521571    0.087266
 H   -1.503063   -0.215350    1.258654
 H    2.783678   -0.060474   -0.985132
 H    3.420021   -0.267966    0.652659
 H    2.626285    1.247951    0.201021
 H   -2.967203    0.652212   -0.046459
}
set optking {
  frozen_dihedral = ("
    2 4 1 15
    4 2 3 5
    3 2 4 1
    12 5 3 2
  ")
}
set {
  geom_maxiter 400
  g_convergence GAU_LOOSE
  dynamic_level 1
}
memory 700MB
set_num_threads(8)
psi4_io.set_default_path("/home/daniele/PSI4_sctatch/Psi4-1butanol_3D")
for _ in range(1):
  try:
    set opt_coordinates both
    optimize('wb97x-d/6-311G')
    break
  except OptimizationConvergenceError:
    break
  else:
    try:
      set opt_coordinates cartesian
      optimize('wb97x-d/6-311G')
      break
    except OptimizationConvergenceError:
      pass
clean()
--------------------------------------------------------------------------

    Molecular point group: c1
  Charge       = 0
  Multiplicity = 1
  Basis Set: 6-311G
    Blend: 6-311G
  Basis Set: (6-311G AUX)
    Blend: CC-PVTZ-JKFIT
  @DF-RKS Final Energy:  -233.57887689511546
    Total Energy =                       -233.5788768951154566
    Molecular point group: c1
  Basis Set: 6-311G
    Blend: 6-311G
  Basis Set: (6-311G AUX)
    Blend: CC-PVTZ-JKFIT
  Basis Set: 6-311G
    Blend: 6-311G
  Basis Set: (6-311G AUX)
    Blend: CC-PVTZ-JKFIT
  @DF-RKS Final Energy:  -233.18818968862439
    Total Energy =                       -233.1881896886243908
  Basis Set: 6-311G
    Blend: 6-311G
  Basis Set: (6-311G AUX)
    Blend: CC-PVTZ-JKFIT
  Basis Set: 6-311G
    Blend: 6-311G
  @DF-RKS Final Energy:  -233.32425449181602
    Total Energy =                       -233.3242544918160206
  @DF-RKS Final Energy:  -233.51604899701522
    Total Energy =                       -233.5160489970152184
  @DF-RKS Final Energy:  -233.57340934129678
    Total Energy =                       -233.5734093412967525
  Basis Set: (6-311G AUX)
    Blend: CC-PVTZ-JKFIT
  Basis Set: 6-311G
    Blend: 6-311G
  Basis Set: (6-311G AUX)
    Blend: CC-PVTZ-JKFIT
  @DF-RKS Final Energy:  -233.58037054368447
    Total Energy =                       -233.5803705436844666
  Basis Set: 6-311G
    Blend: 6-311G
  Basis Set: (6-311G AUX)
    Blend: CC-PVTZ-JKFIT
  Charge       = 0
  Multiplicity = 1
  Basis Set: 6-311G
    Blend: 6-311G
  Basis Set: (6-311G AUX)
    Blend: CC-PVTZ-JKFIT

    Orbital Energies [Eh]
    ---------------------

    Doubly Occupied:

       1A    -19.233293     2A    -10.330729     3A    -10.282496
       4A    -10.275121     5A    -10.270953     6A     -1.118184
       7A     -0.899162     8A     -0.822751     9A     -0.728615
      10A     -0.679481    11A     -0.601313    12A     -0.565351
      13A     -0.526273    14A     -0.517953    15A     -0.481386
      16A     -0.454640    17A     -0.436359    18A     -0.420728
      19A     -0.411279    20A     -0.399567    21A     -0.347683

  @DF-RKS Final Energy:  -233.58062511687629

   => Energetics <=

    Nuclear Repulsion Energy =            183.9653948942042518
    One-Electron Energy =                -679.7727041627302924
    Two-Electron Energy =                 285.4688087922178852
    DFT Exchange-Correlation Energy =     -23.2351756373394274
    Empirical Dispersion Energy =          -0.0069490032287231
    VV10 Nonlocal Energy =                  0.0000000000000000
    Total Energy =                       -233.5806251168763481

  Dipole Moment: [D]
     X:     0.7151      Y:     0.7978      Z:     1.7272     Total:     2.0325

    Molecular point group: c1
  Basis Set: 6-311G
    Blend: 6-311G
  Basis Set: (6-311G AUX)
    Blend: CC-PVTZ-JKFIT

  -Total Gradient:
     Atom            X                  Y                   Z
    ------   -----------------  -----------------  -----------------
       1        0.001890122540     0.000589242867     0.000075666366
       2        0.001120813920    -0.000799475013    -0.000799006207
       3       -0.000894443092     0.000717438188     0.000136619580
       4       -0.002636767066    -0.000320830558    -0.000124558556
       5       -0.000145156815    -0.000268017148    -0.000100684910
       6       -0.000606376101     0.000945455964     0.000243648391
       7       -0.000126408606    -0.000353410143    -0.001184959139
       8        0.000532263106    -0.000958134374    -0.000194225119
       9        0.000130128569     0.000385354060     0.001024333733
      10        0.000298245096    -0.001160506757    -0.000137305719
      11       -0.000205034668     0.000171989025     0.001233989078
      12        0.000181906408    -0.000139817108    -0.000713924773
      13        0.000913665353     0.000224179324     0.000068579337
      14       -0.000308194595     0.000910105897     0.000038880711
      15       -0.000224800708     0.000043597494     0.000495773429

  **** Optimization is complete! (in 7 steps) ****
    Final optimized geometry and variables:
    Molecular point group: c1

    Geometry (in Angstrom), charge = 0, multiplicity = 1:

    O           -2.165197522545    -0.990398953531     0.443755319620
    C           -0.135485760730     0.152956007954    -0.252759756710
    C            1.360732105870     0.379759048288    -0.010192950721
    C           -0.757811023403    -0.819850255474     0.740593834978
    C            1.979307340917     1.362363067337    -1.010322611337
    H           -0.671669897369     1.106553878610    -0.185026548339
    H           -0.298431202037    -0.230313527516    -1.265558155063
    H            1.888363733906    -0.580195341924    -0.069989688289
    H            1.513108978817     0.754101365040     1.009964445146
    H           -0.275858587803    -1.799529133802     0.661298681556
    H           -0.612293688612    -0.454187555965     1.765313848473
    H            1.870918035523     0.996672823252    -2.035195633121
    H            3.045110090133     1.509002437293    -0.817876161998
    H            1.489921783735     2.339152281273    -0.951293708904
    H           -2.718859036488    -0.725461140831     1.188191143434

*** Psi4 exiting successfully. Buy a developer a beer!
