                               Psi4 1.3.2 release

  ==> Input File <==

--------------------------------------------------------------------------
molecule {
0 1
 O   -1.899823   -0.713979   -0.736336
 C    0.050516    0.492496   -0.005573
 C    1.184301   -0.506314    0.345988
 C   -1.369672    0.010730    0.376204
 C    2.592422   -0.008267   -0.037789
 H    0.234187    1.434590    0.528313
 H    0.069288    0.742910   -1.074423
 H    0.993840   -1.461624   -0.161517
 H    1.163857   -0.723840    1.422023
 H   -1.350544   -0.597797    1.288655
 H   -2.003220    0.879475    0.596762
 H    2.666434    0.177338   -1.114788
 H    3.351452   -0.752343    0.225850
 H    2.840106    0.921153    0.485917
 H   -2.798071   -1.015620   -0.503864
}
set optking {
  frozen_dihedral = ("
    3 2 4 1
    2 4 1 15
    4 2 3 5
    12 5 3 2
  ")
}
set {
  geom_maxiter 400
  g_convergence GAU_LOOSE
  dynamic_level 1
}
memory 700MB
set_num_threads(8)
psi4_io.set_default_path("/home/daniele/PSI4_sctatch/Psi4-1butanol_3D")
for _ in range(1):
  try:
    set opt_coordinates both
    optimize('wb97x-d/6-311G')
    break
  except OptimizationConvergenceError:
    break
  else:
    try:
      set opt_coordinates cartesian
      optimize('wb97x-d/6-311G')
      break
    except OptimizationConvergenceError:
      pass
clean()
--------------------------------------------------------------------------

    Molecular point group: c1
  Charge       = 0
  Multiplicity = 1
  Basis Set: 6-311G
    Blend: 6-311G
  Basis Set: (6-311G AUX)
    Blend: CC-PVTZ-JKFIT
  @DF-RKS Final Energy:  -233.57870283041623
    Total Energy =                       -233.5787028304162618
    Molecular point group: c1
  Basis Set: 6-311G
    Blend: 6-311G
  Basis Set: (6-311G AUX)
    Blend: CC-PVTZ-JKFIT
  Basis Set: 6-311G
    Blend: 6-311G
  Basis Set: (6-311G AUX)
    Blend: CC-PVTZ-JKFIT
  @DF-RKS Final Energy:  -233.58031168258222
    Total Energy =                       -233.5803116825822201
  Basis Set: 6-311G
    Blend: 6-311G
  Basis Set: (6-311G AUX)
    Blend: CC-PVTZ-JKFIT
  Charge       = 0
  Multiplicity = 1
  Basis Set: 6-311G
    Blend: 6-311G
  Basis Set: (6-311G AUX)
    Blend: CC-PVTZ-JKFIT

    Orbital Energies [Eh]
    ---------------------

    Doubly Occupied:

       1A    -19.234282     2A    -10.329823     3A    -10.274315
       4A    -10.273597     5A    -10.265610     6A     -1.118632
       7A     -0.895355     8A     -0.821811     9A     -0.725877
      10A     -0.673738    11A     -0.607584    12A     -0.544491
      13A     -0.538093    14A     -0.516940    15A     -0.470177
      16A     -0.459394    17A     -0.435587    18A     -0.413543
      19A     -0.406862    20A     -0.397431    21A     -0.349697

  @DF-RKS Final Energy:  -233.58045477767371

   => Energetics <=

    Nuclear Repulsion Energy =            186.2182542411210591
    One-Electron Energy =                -684.3757646319430705
    Two-Electron Energy =                 287.8244178195204199
    DFT Exchange-Correlation Energy =     -23.2404081440813037
    Empirical Dispersion Energy =          -0.0069540622907675
    VV10 Nonlocal Energy =                  0.0000000000000000
    Total Energy =                       -233.5804547776736797

  Dipole Moment: [D]
     X:    -0.9488      Y:     0.2296      Z:     1.5967     Total:     1.8714

    Molecular point group: c1
  Basis Set: 6-311G
    Blend: 6-311G
  Basis Set: (6-311G AUX)
    Blend: CC-PVTZ-JKFIT

  -Total Gradient:
     Atom            X                  Y                   Z
    ------   -----------------  -----------------  -----------------
       1       -0.000856159048     0.003195441022     0.000926555578
       2       -0.000616944587    -0.001563069739    -0.005143331539
       3       -0.000091222950     0.001379318743     0.002154466140
       4        0.001509290447    -0.003860192398     0.001610425657
       5        0.000334049755     0.000394265432     0.000502765276
       6       -0.000098069994    -0.000077705749     0.000088244965
       7        0.000053513684    -0.000089940927     0.000170145482
       8        0.000064165521     0.000123427265     0.000030946172
       9       -0.000001256919     0.000141135088    -0.000125487213
      10        0.000206379090    -0.000177799065     0.000177770632
      11       -0.000364040748     0.000358658137    -0.000018133769
      12       -0.000099314203    -0.000044235149     0.000215535497
      13       -0.000013802915    -0.000049149256     0.000037775670
      14       -0.000088427768    -0.000142099634    -0.000070637681
      15        0.000151022242     0.000595426244    -0.000481173629

  **** Optimization is complete! (in 3 steps) ****
    Final optimized geometry and variables:
    Molecular point group: c1

    Geometry (in Angstrom), charge = 0, multiplicity = 1:

    O           -1.936028671367    -0.548705629170    -0.710605632618
    C           -0.003908527541     0.653617567592     0.033222895660
    C            1.105382046280    -0.348347266552     0.365332463503
    C           -1.395169846607     0.173950509284     0.422266990934
    C            2.495394086537     0.154394338149    -0.029859743230
    H            0.207852732682     1.594404273294     0.553273066202
    H           -0.016609452453     0.875309748741    -1.035949087010
    H            0.891450675222    -1.293389116819    -0.141349047873
    H            1.086526626301    -0.556237621243     1.440586043690
    H           -1.342882254454    -0.469475556321     1.308999479467
    H           -2.039885399421     1.029813266551     0.654923492570
    H            2.546993635398     0.347880449241    -1.103649653588
    H            3.267714951233    -0.576315078504     0.217089330153
    H            2.735882650668     1.086146419058     0.488381189898
    H           -2.826102235623    -0.874127287657    -0.522334005511

*** Psi4 exiting successfully. Buy a developer a beer!
