                               Psi4 1.3.2 release

  ==> Input File <==

--------------------------------------------------------------------------
molecule {
0 1
 O   -2.324838    0.359433   -0.548909
 C    0.051377    0.210027   -0.229213
 C    1.252121   -0.408541    0.531650
 C   -1.329825   -0.297018    0.239883
 C    2.623976    0.110938    0.054941
 H    0.068206    1.302698   -0.121408
 H    0.145528    0.000670   -1.303064
 H    1.229004   -1.501187    0.424717
 H    1.148998   -0.205783    1.605844
 H   -1.393139   -1.386051    0.122214
 H   -1.470448   -0.080548    1.306425
 H    2.783642   -0.108461   -1.006307
 H    3.435393   -0.360150    0.619950
 H    2.706412    1.194368    0.193047
 H   -3.201333    0.048514   -0.254350
}
set optking {
  frozen_dihedral = ("
    3 2 4 1
    2 4 1 15
    4 2 3 5
    12 5 3 2
  ")
}
set {
  geom_maxiter 400
  g_convergence GAU_LOOSE
  dynamic_level 1
}
memory 700MB
set_num_threads(8)
psi4_io.set_default_path("/home/daniele/PSI4_sctatch/Psi4-1butanol_3D")
for _ in range(1):
  try:
    set opt_coordinates both
    optimize('wb97x-d/6-311G')
    break
  except OptimizationConvergenceError:
    break
  else:
    try:
      set opt_coordinates cartesian
      optimize('wb97x-d/6-311G')
      break
    except OptimizationConvergenceError:
      pass
clean()
--------------------------------------------------------------------------

    Molecular point group: c1
  Charge       = 0
  Multiplicity = 1
  Basis Set: 6-311G
    Blend: 6-311G
  Basis Set: (6-311G AUX)
    Blend: CC-PVTZ-JKFIT
  @DF-RKS Final Energy:  -233.58101448670064
    Total Energy =                       -233.5810144867006386
    Molecular point group: c1
  Basis Set: 6-311G
    Blend: 6-311G
  Basis Set: (6-311G AUX)
    Blend: CC-PVTZ-JKFIT
  Basis Set: 6-311G
    Blend: 6-311G
  Basis Set: (6-311G AUX)
    Blend: CC-PVTZ-JKFIT
  @DF-RKS Final Energy:  -233.58245419344556
    Total Energy =                       -233.5824541934455567
  Basis Set: 6-311G
    Blend: 6-311G
  Basis Set: (6-311G AUX)
    Blend: CC-PVTZ-JKFIT
  Charge       = 0
  Multiplicity = 1
  Basis Set: 6-311G
    Blend: 6-311G
  Basis Set: (6-311G AUX)
    Blend: CC-PVTZ-JKFIT

    Orbital Energies [Eh]
    ---------------------

    Doubly Occupied:

       1A    -19.234932     2A    -10.329710     3A    -10.280900
       4A    -10.273854     5A    -10.269267     6A     -1.119431
       7A     -0.899695     8A     -0.823373     9A     -0.726009
      10A     -0.678475    11A     -0.595225    12A     -0.575056
      13A     -0.522898    14A     -0.519233    15A     -0.484377
      16A     -0.450345    17A     -0.435236    18A     -0.418455
      19A     -0.408168    20A     -0.400067    21A     -0.351925

  @DF-RKS Final Energy:  -233.58254985519392

   => Energetics <=

    Nuclear Repulsion Energy =            184.5074048562984501
    One-Electron Energy =                -680.8699607188182199
    Two-Electron Energy =                 286.0282133874407577
    DFT Exchange-Correlation Energy =     -23.2412537537791231
    Empirical Dispersion Energy =          -0.0069536263357376
    VV10 Nonlocal Energy =                  0.0000000000000000
    Total Energy =                       -233.5825498551938892

  Dipole Moment: [D]
     X:    -0.3400      Y:    -1.2437      Z:     1.4008     Total:     1.9039

    Molecular point group: c1
  Basis Set: 6-311G
    Blend: 6-311G
  Basis Set: (6-311G AUX)
    Blend: CC-PVTZ-JKFIT

  -Total Gradient:
     Atom            X                  Y                   Z
    ------   -----------------  -----------------  -----------------
       1        0.000632046306    -0.000792763185     0.000912498839
       2        0.000809652445     0.000055638647    -0.000007327154
       3       -0.000424297091     0.000064610918    -0.000187390576
       4       -0.000816305891     0.000586304082    -0.000714111308
       5        0.000129343051     0.000191859492    -0.000144232691
       6       -0.000018946087    -0.000084366059     0.000001970669
       7       -0.000021281838     0.000007117682     0.000074918966
       8        0.000030020015     0.000074806857    -0.000023984852
       9        0.000035323163     0.000021744903    -0.000069248897
      10       -0.000102693628    -0.000173304516    -0.000038757056
      11       -0.000124071570     0.000049353163     0.000160515858
      12       -0.000073830420     0.000002248843     0.000188896813
      13        0.000027026153    -0.000043791498     0.000058189912
      14       -0.000068684723    -0.000181054531    -0.000004789686
      15       -0.000087213243     0.000212338093    -0.000198580843

  **** Optimization is complete! (in 3 steps) ****
    Final optimized geometry and variables:
    Molecular point group: c1

    Geometry (in Angstrom), charge = 0, multiplicity = 1:

    O           -2.288856697021     0.354361787633    -0.592822087658
    C            0.068533432977     0.207731826790    -0.231795506620
    C            1.225414317449    -0.406382253334     0.561107544223
    C           -1.288418742242    -0.293578969581     0.225115348696
    C            2.590717375642     0.107446389966     0.097514434561
    H            0.085131386369     1.296432011843    -0.135403707544
    H            0.181247136019    -0.019286732375    -1.295090888660
    H            1.195096693361    -1.496964333837     0.465495644193
    H            1.095809143517    -0.185039077542     1.625877024444
    H           -1.341713397221    -1.383609765501     0.111220536652
    H           -1.438315532540    -0.051522082411     1.284803717228
    H            2.756949005373    -0.128788906634    -0.955825435205
    H            3.401585039367    -0.339998400701     0.675109336268
    H            2.655496152917     1.191992000960     0.209515047368
    H           -3.178529776762     0.074351897337    -0.339744116184

*** Psi4 exiting successfully. Buy a developer a beer!
