                               Psi4 1.3.2 release

  ==> Input File <==

--------------------------------------------------------------------------
molecule {
0 1
 O   -2.365463    0.445065   -0.370543
 C    0.021553    0.245963   -0.157599
 C    1.241975   -0.407599    0.539715
 C   -1.347796   -0.234568    0.370925
 C    2.601384    0.085963    0.003824
 H    0.068026    1.336746   -0.041696
 H    0.061098    0.046791   -1.236416
 H    1.189166   -1.498152    0.423836
 H    1.193680   -0.213670    1.619349
 H   -1.434695   -1.323502    0.262800
 H   -1.439047   -0.014622    1.441447
 H    2.705731   -0.125377   -1.065858
 H    3.427254   -0.410235    0.524677
 H    2.715514    1.165547    0.149971
 H   -2.913305   -0.219442   -0.829011
}
set optking {
  frozen_dihedral = ("
    2 4 1 15
    4 2 3 5
    3 2 4 1
    12 5 3 2
  ")
}
set {
  geom_maxiter 400
  g_convergence GAU_LOOSE
  dynamic_level 1
}
memory 700MB
set_num_threads(8)
psi4_io.set_default_path("/home/daniele/PSI4_sctatch/Psi4-1butanol_3D")
for _ in range(1):
  try:
    set opt_coordinates both
    optimize('wb97x-d/6-311G')
    break
  except OptimizationConvergenceError:
    break
  else:
    try:
      set opt_coordinates cartesian
      optimize('wb97x-d/6-311G')
      break
    except OptimizationConvergenceError:
      pass
clean()
--------------------------------------------------------------------------

    Molecular point group: c1
  Charge       = 0
  Multiplicity = 1
  Basis Set: 6-311G
    Blend: 6-311G
  Basis Set: (6-311G AUX)
    Blend: CC-PVTZ-JKFIT
  @DF-RKS Final Energy:  -233.57885147690189
    Total Energy =                       -233.5788514769018889
    Molecular point group: c1
  Basis Set: 6-311G
    Blend: 6-311G
  Basis Set: (6-311G AUX)
    Blend: CC-PVTZ-JKFIT
  Basis Set: 6-311G
    Blend: 6-311G
  Basis Set: (6-311G AUX)
    Blend: CC-PVTZ-JKFIT
  @DF-RKS Final Energy:  -233.58053004312572
    Total Energy =                       -233.5805300431257194
  Basis Set: 6-311G
    Blend: 6-311G
  Basis Set: (6-311G AUX)
    Blend: CC-PVTZ-JKFIT
  Charge       = 0
  Multiplicity = 1
  Basis Set: 6-311G
    Blend: 6-311G
  Basis Set: (6-311G AUX)
    Blend: CC-PVTZ-JKFIT

    Orbital Energies [Eh]
    ---------------------

    Doubly Occupied:

       1A    -19.232890     2A    -10.330059     3A    -10.281746
       4A    -10.274325     5A    -10.270239     6A     -1.118068
       7A     -0.900281     8A     -0.823405     9A     -0.728826
      10A     -0.680116    11A     -0.601381    12A     -0.566282
      13A     -0.526945    14A     -0.518056    15A     -0.481927
      16A     -0.454649    17A     -0.436264    18A     -0.421302
      19A     -0.411412    20A     -0.399481    21A     -0.347687

  @DF-RKS Final Energy:  -233.58062323692405

   => Energetics <=

    Nuclear Repulsion Energy =            184.2127896486252325
    One-Electron Energy =                -680.2587156253945295
    Two-Electron Energy =                 285.7145030146693898
    DFT Exchange-Correlation Energy =     -23.2422416842599127
    Empirical Dispersion Energy =          -0.0069585905642170
    VV10 Nonlocal Energy =                  0.0000000000000000
    Total Energy =                       -233.5806232369240263

  Dipole Moment: [D]
     X:     0.3329      Y:    -2.0074      Z:    -0.0123     Total:     2.0348

    Molecular point group: c1
  Basis Set: 6-311G
    Blend: 6-311G
  Basis Set: (6-311G AUX)
    Blend: CC-PVTZ-JKFIT

  -Total Gradient:
     Atom            X                  Y                   Z
    ------   -----------------  -----------------  -----------------
       1        0.000895139803    -0.001580560009     0.000148091258
       2        0.001114915495     0.000603710548     0.000591884801
       3       -0.000676732476    -0.000318778724    -0.000601941688
       4       -0.000718426469     0.000838951573    -0.000416004049
       5       -0.000006381228     0.000108366421    -0.000256039258
       6       -0.000100657345    -0.000076279242     0.000044499032
       7       -0.000077360957    -0.000003812270     0.000075445381
       8       -0.000007235382     0.000100900374    -0.000050659542
       9        0.000029422408    -0.000012266139    -0.000065124560
      10       -0.000144426150    -0.000105686695    -0.000018252656
      11       -0.000471208384     0.000168055178    -0.000086621681
      12       -0.000080222890     0.000071238525     0.000177722913
      13       -0.000062573955    -0.000047751252     0.000023719541
      14       -0.000078379749    -0.000214844905    -0.000009607722
      15        0.000281540957     0.000450902234     0.000409744821

  **** Optimization is complete! (in 3 steps) ****
    Final optimized geometry and variables:
    Molecular point group: c1

    Geometry (in Angstrom), charge = 0, multiplicity = 1:

    O           -2.343851928981     0.408954387535    -0.443919070451
    C            0.070733266080     0.222883988274    -0.227787588549
    C            1.245521601756    -0.438170858585     0.496791034937
    C           -1.280033722753    -0.246553998873     0.289417315886
    C            2.601684141418     0.041929701671    -0.025423939710
    H            0.125957277814     1.309378661847    -0.121316306041
    H            0.125739906299     0.007016119289    -1.298970650329
    H            1.177033444011    -1.525835996588     0.385983455309
    H            1.174405493959    -0.231835942183     1.569990508557
    H           -1.353854596230    -1.336600978026     0.201047111510
    H           -1.392794843800     0.013388925231     1.344824420213
    H            2.709318351569    -0.181111417433    -1.089291846919
    H            3.425518851646    -0.438976259227     0.504776963168
    H            2.704963349635     1.121933967549     0.099852398679
    H           -2.906742561603    -0.227949647341    -0.897880117292

*** Psi4 exiting successfully. Buy a developer a beer!
