                               Psi4 1.3.2 release

  ==> Input File <==

--------------------------------------------------------------------------
molecule {
0 1
 O   -2.339045    0.422659   -0.463708
 C    0.042165    0.239022   -0.194077
 C    1.249069   -0.406395    0.534189
 C   -1.336319   -0.249064    0.303232
 C    2.618864    0.092864    0.031183
 H    0.080556    1.330396   -0.079038
 H    0.107674    0.037251   -1.271405
 H    1.204179   -1.497636    0.420258
 H    1.173934   -0.209736    1.611790
 H   -1.411461   -1.337703    0.183053
 H   -1.456139   -0.036684    1.372637
 H    2.751227   -0.119834   -1.035118
 H    3.433553   -0.398325    0.573837
 H    2.724913    1.173041    0.178923
 H   -3.118095   -0.160948   -0.530335
}
set optking {
  frozen_dihedral = ("
    2 4 1 15
    4 2 3 5
    3 2 4 1
    12 5 3 2
  ")
}
set {
  geom_maxiter 400
  g_convergence GAU_LOOSE
  dynamic_level 1
}
memory 700MB
set_num_threads(8)
psi4_io.set_default_path("/home/daniele/PSI4_sctatch/Psi4-1butanol_3D")
for _ in range(1):
  try:
    set opt_coordinates both
    optimize('wb97x-d/6-311G')
    break
  except OptimizationConvergenceError:
    break
  else:
    try:
      set opt_coordinates cartesian
      optimize('wb97x-d/6-311G')
      break
    except OptimizationConvergenceError:
      pass
clean()
--------------------------------------------------------------------------

    Molecular point group: c1
  Charge       = 0
  Multiplicity = 1
  Basis Set: 6-311G
    Blend: 6-311G
  Basis Set: (6-311G AUX)
    Blend: CC-PVTZ-JKFIT
  @DF-RKS Final Energy:  -233.58000195749099
    Total Energy =                       -233.5800019574910209
    Molecular point group: c1
  Basis Set: 6-311G
    Blend: 6-311G
  Basis Set: (6-311G AUX)
    Blend: CC-PVTZ-JKFIT
  Basis Set: 6-311G
    Blend: 6-311G
  Basis Set: (6-311G AUX)
    Blend: CC-PVTZ-JKFIT
  @DF-RKS Final Energy:  -233.58147993596691
    Total Energy =                       -233.5814799359668541
  Basis Set: 6-311G
    Blend: 6-311G
  Basis Set: (6-311G AUX)
    Blend: CC-PVTZ-JKFIT
  Charge       = 0
  Multiplicity = 1
  Basis Set: 6-311G
    Blend: 6-311G
  Basis Set: (6-311G AUX)
    Blend: CC-PVTZ-JKFIT

    Orbital Energies [Eh]
    ---------------------

    Doubly Occupied:

       1A    -19.233891     2A    -10.329885     3A    -10.281010
       4A    -10.273740     5A    -10.269451     6A     -1.118712
       7A     -0.899780     8A     -0.823362     9A     -0.726742
      10A     -0.678759    11A     -0.598031    12A     -0.571775
      13A     -0.524245    14A     -0.518577    15A     -0.483594
      16A     -0.451471    17A     -0.434721    18A     -0.419206
      19A     -0.409396    20A     -0.399831    21A     -0.350202

  @DF-RKS Final Energy:  -233.58157898195904

   => Energetics <=

    Nuclear Repulsion Energy =            184.4177612768589825
    One-Electron Energy =                -680.6888498008405577
    Two-Electron Energy =                 285.9382683939912795
    DFT Exchange-Correlation Energy =     -23.2418129474849593
    Empirical Dispersion Energy =          -0.0069459044838122
    VV10 Nonlocal Energy =                  0.0000000000000000
    Total Energy =                       -233.5815789819590691

  Dipole Moment: [D]
     X:    -0.1368      Y:    -1.8177      Z:     0.7112     Total:     1.9567

    Molecular point group: c1
  Basis Set: 6-311G
    Blend: 6-311G
  Basis Set: (6-311G AUX)
    Blend: CC-PVTZ-JKFIT

  -Total Gradient:
     Atom            X                  Y                   Z
    ------   -----------------  -----------------  -----------------
       1       -0.000121387947    -0.000716219312     0.002115174581
       2        0.000897249665    -0.000362570362    -0.000418431447
       3       -0.000504574828    -0.000211348044    -0.000454174452
       4       -0.000733648037     0.001718567854     0.000174575704
       5        0.000073127344     0.000156621010    -0.000213065842
       6       -0.000023814678    -0.000067530575     0.000006874648
       7       -0.000044056006     0.000001325053     0.000104796120
       8        0.000015044810     0.000086007058    -0.000041761952
       9        0.000034118408     0.000012012159    -0.000064820750
      10       -0.000126996208    -0.000104509941    -0.000016116858
      11       -0.000195992783     0.000077162347     0.000083371993
      12       -0.000073581328     0.000021935215     0.000194024270
      13       -0.000000172015    -0.000056189626     0.000047599119
      14       -0.000078878681    -0.000207976055    -0.000008097011
      15        0.000801097426    -0.000367860348    -0.001523818910

  **** Optimization is complete! (in 3 steps) ****
    Final optimized geometry and variables:
    Molecular point group: c1

    Geometry (in Angstrom), charge = 0, multiplicity = 1:

    O           -2.306216441724     0.391629222040    -0.532791060178
    C            0.068882655735     0.215947805718    -0.227011708510
    C            1.231908544794    -0.425033307922     0.534505876268
    C           -1.287058534368    -0.265828767526     0.256675888305
    C            2.595467431319     0.068488491694     0.044759343480
    H            0.109951305916     1.303788421522    -0.125695246724
    H            0.151089102263    -0.006731680978    -1.293964447870
    H            1.180038133559    -1.514162325109     0.430095071545
    H            1.129962701329    -0.211343540040     1.603759649235
    H           -1.348705179919    -1.355267836063     0.144807097924
    H           -1.421951099356    -0.023951084452     1.316831813043
    H            2.734075678848    -0.161216039188    -1.014029704664
    H            3.410854059661    -0.398187421992     0.600317619216
    H            2.681933128722     1.150627787819     0.164443509897
    H           -3.093217883860    -0.159754121682    -0.621202640630

*** Psi4 exiting successfully. Buy a developer a beer!
