                               Psi4 1.3.2 release

  ==> Input File <==

--------------------------------------------------------------------------
molecule {
0 1
 O   -2.383358    0.087476   -0.587159
 C    0.001516    0.110574   -0.242364
 C    1.233574   -0.424178    0.531459
 C   -1.347723   -0.487484    0.216147
 C    2.571493    0.184786    0.065163
 H   -0.053287    1.202290   -0.140683
 H    0.118357   -0.096801   -1.314148
 H    1.284567   -1.516105    0.427369
 H    1.107607   -0.226497    1.604232
 H   -1.331427   -1.577499    0.095595
 H   -1.514828   -0.290305    1.282794
 H    2.755187   -0.026795   -0.993841
 H    3.407292   -0.230454    0.638367
 H    2.580533    1.271524    0.201944
 H   -2.704425    0.898378   -0.149456
}
set optking {
  frozen_dihedral = ("
    2 4 1 15
    4 2 3 5
    3 2 4 1
    12 5 3 2
  ")
}
set {
  geom_maxiter 400
  g_convergence GAU_LOOSE
  dynamic_level 1
}
memory 700MB
set_num_threads(8)
psi4_io.set_default_path("/home/daniele/PSI4_sctatch/Psi4-1butanol_3D")
for _ in range(1):
  try:
    set opt_coordinates both
    optimize('wb97x-d/6-311G')
    break
  except OptimizationConvergenceError:
    break
  else:
    try:
      set opt_coordinates cartesian
      optimize('wb97x-d/6-311G')
      break
    except OptimizationConvergenceError:
      pass
clean()
--------------------------------------------------------------------------

    Molecular point group: c1
  Charge       = 0
  Multiplicity = 1
  Basis Set: 6-311G
    Blend: 6-311G
  Basis Set: (6-311G AUX)
    Blend: CC-PVTZ-JKFIT
  @DF-RKS Final Energy:  -233.57957486827709
    Total Energy =                       -233.5795748682771489
    Molecular point group: c1
  Basis Set: 6-311G
    Blend: 6-311G
  Basis Set: (6-311G AUX)
    Blend: CC-PVTZ-JKFIT
  Basis Set: 6-311G
    Blend: 6-311G
  Basis Set: (6-311G AUX)
    Blend: CC-PVTZ-JKFIT
  @DF-RKS Final Energy:  -232.83860783519339
    Total Energy =                       -232.8386078351934145
  Basis Set: 6-311G
    Blend: 6-311G
  Basis Set: (6-311G AUX)
    Blend: CC-PVTZ-JKFIT
  Basis Set: 6-311G
    Blend: 6-311G
  @DF-RKS Final Energy:  -232.98711023386070
    Total Energy =                       -232.9871102338607045
  @DF-RKS Final Energy:  -233.25018861997617
    Total Energy =                       -233.2501886199761714
  @DF-RKS Final Energy:  -233.45477172811425
    Total Energy =                       -233.4547717281142809
  @DF-RKS Final Energy:  -233.56188176782604
    Total Energy =                       -233.5618817678260370
  @DF-RKS Final Energy:  -233.58082779889054
    Total Energy =                       -233.5808277988904820
  Basis Set: (6-311G AUX)
    Blend: CC-PVTZ-JKFIT
  Basis Set: 6-311G
    Blend: 6-311G
  Basis Set: (6-311G AUX)
    Blend: CC-PVTZ-JKFIT
  @DF-RKS Final Energy:  -233.58170352014972
    Total Energy =                       -233.5817035201497163
  Basis Set: 6-311G
    Blend: 6-311G
  Basis Set: (6-311G AUX)
    Blend: CC-PVTZ-JKFIT
  Charge       = 0
  Multiplicity = 1
  Basis Set: 6-311G
    Blend: 6-311G
  Basis Set: (6-311G AUX)
    Blend: CC-PVTZ-JKFIT

    Orbital Energies [Eh]
    ---------------------

    Doubly Occupied:

       1A    -19.234434     2A    -10.330102     3A    -10.283915
       4A    -10.277547     5A    -10.272094     6A     -1.118890
       7A     -0.901473     8A     -0.823864     9A     -0.731542
      10A     -0.683295    11A     -0.600638    12A     -0.562717
      13A     -0.530417    14A     -0.518381    15A     -0.480134
      16A     -0.460009    17A     -0.442502    18A     -0.423139
      19A     -0.412984    20A     -0.398366    21A     -0.348820

  @DF-RKS Final Energy:  -233.58174903483763

   => Energetics <=

    Nuclear Repulsion Energy =            184.0442919989987445
    One-Electron Energy =                -679.8662338154201734
    Two-Electron Energy =                 285.4861850206485769
    DFT Exchange-Correlation Energy =     -23.2389738213956321
    Empirical Dispersion Energy =          -0.0070184176691259
    VV10 Nonlocal Energy =                  0.0000000000000000
    Total Energy =                       -233.5817490348375998

  Dipole Moment: [D]
     X:     0.8192      Y:     1.6368      Z:     0.9563     Total:     2.0651

    Molecular point group: c1
  Basis Set: 6-311G
    Blend: 6-311G
  Basis Set: (6-311G AUX)
    Blend: CC-PVTZ-JKFIT

  -Total Gradient:
     Atom            X                  Y                   Z
    ------   -----------------  -----------------  -----------------
       1        0.000640063481     0.001664158142    -0.001864695061
       2        0.001119210596    -0.001479107350    -0.000380430490
       3       -0.000925611368     0.000202327508    -0.000279331138
       4       -0.001268467143     0.000601073704     0.000309833966
       5        0.000471782593     0.000195755166     0.000572657904
       6       -0.000389955421     0.000200958768    -0.000252362089
       7       -0.000351459826    -0.000086755382    -0.000454131647
       8        0.000367957176    -0.000140694700     0.000256865945
       9        0.000295503440     0.000063779589     0.000429399120
      10        0.000304543667    -0.000229927149     0.000263280885
      11        0.000133367031    -0.000002567232     0.000408915225
      12       -0.000063368446    -0.000103671746    -0.000348219195
      13       -0.000228332142    -0.000082697014     0.000034369043
      14       -0.000221972946     0.000146461719    -0.000159568663
      15        0.000024269851    -0.000972551428     0.001560513701

  **** Optimization is complete! (in 9 steps) ****
    Final optimized geometry and variables:
    Molecular point group: c1

    Geometry (in Angstrom), charge = 0, multiplicity = 1:

    O           -2.010822158685    -1.148627810138     0.770761600191
    C           -0.173949965870     0.124415273415    -0.252551650717
    C            1.312712557212     0.486451573582    -0.185095348305
    C           -0.604603052261    -0.816051832829     0.864488911026
    C            1.741290571117     1.435093579607    -1.307174499753
    H           -0.776098341540     1.039393175052    -0.199550599954
    H           -0.407050214978    -0.346081290558    -1.212150687242
    H            1.912685086256    -0.429263168767    -0.231415503339
    H            1.533147116056     0.946662726675     0.785272014012
    H           -0.068755028202    -1.762531977071     0.786483682607
    H           -0.368429382529    -0.379121443613     1.842605629991
    H            1.563180059859     0.984184395599    -2.286893071234
    H            2.802211572995     1.679603456997    -1.237685679377
    H            1.175960976191     2.369674727086    -1.265113588201
    H           -2.547039609264    -0.517274639107     1.267871187074

*** Psi4 exiting successfully. Buy a developer a beer!
