                               Psi4 1.3.2 release

  ==> Input File <==

--------------------------------------------------------------------------
molecule {
0 1
 O   -2.202798    0.263196   -0.643631
 C   -0.010499    0.612671    0.240537
 C    1.266629   -0.001625    0.839973
 C   -1.065527   -0.430604   -0.083162
 C    2.302833   -0.394963   -0.218539
 H   -0.457859    1.324024    0.938268
 H    0.225955    1.168548   -0.669581
 H    1.008219   -0.873230    1.450614
 H    1.723674    0.719410    1.522556
 H   -0.670731   -1.165701   -0.795883
 H   -1.350595   -0.960870    0.833909
 H    1.900080   -1.133360   -0.916239
 H    3.194966   -0.825588    0.240188
 H    2.609309    0.478704   -0.797276
 H   -2.911918   -0.354775   -0.864801
}
memory 700MB
set_num_threads(8)
psi4_io.set_default_path("/home/daniele/PSI4_sctatch/Psi4-1butanol_3D")
set freeze_core True
E, wfn = energy('wb97x-d/6-311+G*',return_wfn=True)
oeprop(wfn,"WIBERG_LOWDIN_INDICES")
clean()
--------------------------------------------------------------------------

    Molecular point group: c1

    Geometry (in Angstrom), charge = 0, multiplicity = 1:

       Center              X                  Y                   Z               Mass
    ------------   -----------------  -----------------  -----------------  -----------------
         O           -2.202798170011     0.263195881353    -0.643631126520    15.994914619570
         C           -0.010499170011     0.612670881353     0.240536873480    12.000000000000
         C            1.266628829989    -0.001625118647     0.839972873480    12.000000000000
         C           -1.065527170011    -0.430604118647    -0.083162126520    12.000000000000
         C            2.302832829989    -0.394963118647    -0.218539126520    12.000000000000
         H           -0.457859170011     1.324023881353     0.938267873480     1.007825032230
         H            0.225954829989     1.168547881353    -0.669581126520     1.007825032230
         H            1.008218829989    -0.873230118647     1.450613873480     1.007825032230
         H            1.723673829989     0.719409881353     1.522555873480     1.007825032230
         H           -0.670731170011    -1.165701118647    -0.795883126520     1.007825032230
         H           -1.350595170011    -0.960870118647     0.833908873480     1.007825032230
         H            1.900079829989    -1.133360118647    -0.916239126520     1.007825032230
         H            3.194965829989    -0.825588118647     0.240187873480     1.007825032230
         H            2.609308829989     0.478703881353    -0.797276126520     1.007825032230
         H           -2.911918170011    -0.354775118647    -0.864801126520     1.007825032230

  Charge       = 0
  Multiplicity = 1
  Basis Set: 6-311+G*
    Blend: 6-311+G*
  Basis Set: (6-311+G* AUX)
    Blend: HEAVY-AUG-CC-PVTZ-JKFIT

    Orbital Energies [Eh]
    ---------------------

    Doubly Occupied:

       1A    -19.244993     2A    -10.328028     3A    -10.279954
       4A    -10.273045     5A    -10.269561     6A     -1.116793
       7A     -0.896929     8A     -0.818715     9A     -0.730883
      10A     -0.671910    11A     -0.602178    12A     -0.563248
      13A     -0.540798    14A     -0.506802    15A     -0.478679
      16A     -0.470201    17A     -0.431116    18A     -0.420075
      19A     -0.414688    20A     -0.402232    21A     -0.360189

  @DF-RKS Final Energy:  -233.64449799452655

   => Energetics <=

    Nuclear Repulsion Energy =            186.1855976772325505
    One-Electron Energy =                -684.3015740527356456
    Two-Electron Energy =                 287.7189065820607539
    DFT Exchange-Correlation Energy =     -23.2402383219855651
    Empirical Dispersion Energy =          -0.0071898790986140
    VV10 Nonlocal Energy =                  0.0000000000000000
    Total Energy =                       -233.6444979945265459

  Dipole Moment: [D]
     X:     0.2173      Y:    -1.7166      Z:     0.3625     Total:     1.7678

*** Psi4 exiting successfully. Buy a developer a beer!
