                               Psi4 1.3.2 release

  ==> Input File <==

--------------------------------------------------------------------------
molecule {
0 1
 O   -2.329943    0.261178   -0.608058
 C    0.046037    0.176032   -0.251978
 C    1.249499   -0.412251    0.528773
 C   -1.329426   -0.360355    0.202776
 C    2.616465    0.133728    0.068844
 H    0.036814    1.269688   -0.153652
 H    0.160120   -0.039741   -1.322808
 H    1.251939   -1.505624    0.427287
 H    1.126555   -0.206611    1.600412
 H   -1.368379   -1.451747    0.100128
 H   -1.485235   -0.133120    1.265538
 H    2.795805   -0.087960   -0.988666
 H    3.429430   -0.318540    0.646928
 H    2.674419    1.219306    0.202884
 H   -3.149022    0.334927   -0.082988
}
set optking {
  frozen_dihedral = ("
    2 4 1 15
    4 2 3 5
    3 2 4 1
    12 5 3 2
  ")
}
set {
  geom_maxiter 400
  g_convergence GAU_LOOSE
  dynamic_level 1
}
memory 700MB
set_num_threads(8)
psi4_io.set_default_path("/home/daniele/PSI4_sctatch/Psi4-1butanol_3D")
for _ in range(1):
  try:
    set opt_coordinates both
    optimize('wb97x-d/6-311G')
    break
  except OptimizationConvergenceError:
    break
  else:
    try:
      set opt_coordinates cartesian
      optimize('wb97x-d/6-311G')
      break
    except OptimizationConvergenceError:
      pass
clean()
--------------------------------------------------------------------------

    Molecular point group: c1
  Charge       = 0
  Multiplicity = 1
  Basis Set: 6-311G
    Blend: 6-311G
  Basis Set: (6-311G AUX)
    Blend: CC-PVTZ-JKFIT
  @DF-RKS Final Energy:  -233.58001159744342
    Total Energy =                       -233.5800115974434163
    Molecular point group: c1
  Basis Set: 6-311G
    Blend: 6-311G
  Basis Set: (6-311G AUX)
    Blend: CC-PVTZ-JKFIT
  Basis Set: 6-311G
    Blend: 6-311G
  Basis Set: (6-311G AUX)
    Blend: CC-PVTZ-JKFIT
  @DF-RKS Final Energy:  -233.58149385301985
    Total Energy =                       -233.5814938530197935
  Basis Set: 6-311G
    Blend: 6-311G
  Basis Set: (6-311G AUX)
    Blend: CC-PVTZ-JKFIT
  Charge       = 0
  Multiplicity = 1
  Basis Set: 6-311G
    Blend: 6-311G
  Basis Set: (6-311G AUX)
    Blend: CC-PVTZ-JKFIT

    Orbital Energies [Eh]
    ---------------------

    Doubly Occupied:

       1A    -19.233907     2A    -10.329878     3A    -10.280987
       4A    -10.273733     5A    -10.269442     6A     -1.118718
       7A     -0.899767     8A     -0.823360     9A     -0.726734
      10A     -0.678745    11A     -0.598217    12A     -0.571524
      13A     -0.524205    14A     -0.518691    15A     -0.483513
      16A     -0.451533    17A     -0.434720    18A     -0.419111
      19A     -0.409461    20A     -0.399839    21A     -0.350190

  @DF-RKS Final Energy:  -233.58159303207256

   => Energetics <=

    Nuclear Repulsion Energy =            184.4186211432445930
    One-Electron Energy =                -680.6908052812246979
    Two-Electron Energy =                 285.9393534998707196
    DFT Exchange-Correlation Energy =     -23.2418166379229518
    Empirical Dispersion Energy =          -0.0069457560401994
    VV10 Nonlocal Energy =                  0.0000000000000000
    Total Energy =                       -233.5815930320725613

  Dipole Moment: [D]
     X:    -0.2161      Y:    -0.5254      Z:     1.8715     Total:     1.9558

    Molecular point group: c1
  Basis Set: 6-311G
    Blend: 6-311G
  Basis Set: (6-311G AUX)
    Blend: CC-PVTZ-JKFIT

  -Total Gradient:
     Atom            X                  Y                   Z
    ------   -----------------  -----------------  -----------------
       1       -0.000013194669    -0.002118553551     0.000850056824
       2        0.000823271089     0.000600839328     0.000401589563
       3       -0.000505522633     0.000267340673    -0.000004010435
       4       -0.000627343355    -0.000260590909    -0.001591781366
       5        0.000044779218     0.000262040164    -0.000107463540
       6       -0.000034495041    -0.000120872468     0.000013292686
       7       -0.000025462497     0.000003325417     0.000066976828
       8        0.000023221027     0.000076506600    -0.000022987967
       9        0.000023110426     0.000031600920    -0.000077286068
      10       -0.000181285086    -0.000100959037    -0.000084230036
      11       -0.000130806071     0.000014738328     0.000096270855
      12       -0.000075544105    -0.000001071432     0.000192516970
      13       -0.000008435416    -0.000037064557     0.000055729292
      14       -0.000062078687    -0.000196469134    -0.000015504963
      15        0.000668564647     0.001594273737     0.000248976774

  **** Optimization is complete! (in 3 steps) ****
    Final optimized geometry and variables:
    Molecular point group: c1

    Geometry (in Angstrom), charge = 0, multiplicity = 1:

    O           -2.303376971554     0.330671367785    -0.583463872177
    C            0.068560594083     0.211885135192    -0.230628241579
    C            1.232174774258    -0.409861922378     0.545821613605
    C           -1.283872461177    -0.312370464773     0.217322195769
    C            2.592010645140     0.126301477865     0.091939627021
    H            0.073554435211     1.298050244309    -0.108465359712
    H            0.183502739063     0.012149914915    -1.299387565433
    H            1.210953560075    -1.498126294912     0.425635249791
    H            1.102738469441    -0.213906399491     1.615762952183
    H           -1.334629304474    -1.398755340332     0.083610274848
    H           -1.426821999597    -0.092698568154     1.282415508946
    H            2.758181773394    -0.084494945482    -0.966761366830
    H            3.407777893822    -0.327221285370     0.657716743207
    H            2.647845342008     1.208542933206     0.228454640643
    H           -3.130249296460     0.421232411196    -0.094267042501

*** Psi4 exiting successfully. Buy a developer a beer!
