                               Psi4 1.3.2 release

  ==> Input File <==

--------------------------------------------------------------------------
molecule {
0 1
 O   -2.245528    0.307775   -0.636487
 C    0.023143    0.514436    0.086322
 C    1.239069   -0.144722    0.774239
 C   -1.182200   -0.406948    0.031310
 C    2.463788   -0.242802   -0.140485
 H   -0.273773    1.430672    0.599546
 H    0.274383    0.800510   -0.937970
 H    0.972520   -1.151502    1.115438
 H    1.505869    0.412579    1.675219
 H   -0.924504   -1.322639   -0.516199
 H   -1.483230   -0.689356    1.047962
 H    2.237090   -0.836891   -1.029045
 H    3.308525   -0.709614    0.370040
 H    2.777208    0.748329   -0.474958
 H   -3.044522   -0.232365   -0.695149
}
memory 700MB
set_num_threads(8)
psi4_io.set_default_path("/home/daniele/PSI4_sctatch/Psi4-1butanol_3D")
set freeze_core True
E, wfn = energy('wb97x-d/6-311+G*',return_wfn=True)
oeprop(wfn,"WIBERG_LOWDIN_INDICES")
clean()
--------------------------------------------------------------------------

    Molecular point group: c1

    Geometry (in Angstrom), charge = 0, multiplicity = 1:

       Center              X                  Y                   Z               Mass
    ------------   -----------------  -----------------  -----------------  -----------------
         O           -2.245527971522     0.307775069127    -0.636486970071    15.994914619570
         C            0.023143028478     0.514436069127     0.086322029929    12.000000000000
         C            1.239069028478    -0.144721930873     0.774239029929    12.000000000000
         C           -1.182199971522    -0.406947930873     0.031310029929    12.000000000000
         C            2.463788028478    -0.242801930873    -0.140484970071    12.000000000000
         H           -0.273772971522     1.430672069127     0.599546029929     1.007825032230
         H            0.274383028478     0.800510069127    -0.937969970071     1.007825032230
         H            0.972520028478    -1.151501930873     1.115438029929     1.007825032230
         H            1.505869028478     0.412579069127     1.675219029929     1.007825032230
         H           -0.924503971522    -1.322638930873    -0.516198970071     1.007825032230
         H           -1.483229971522    -0.689355930873     1.047962029929     1.007825032230
         H            2.237090028478    -0.836890930873    -1.029044970071     1.007825032230
         H            3.308525028478    -0.709613930873     0.370040029929     1.007825032230
         H            2.777208028478     0.748329069127    -0.474957970071     1.007825032230
         H           -3.044521971522    -0.232364930873    -0.695148970071     1.007825032230

  Charge       = 0
  Multiplicity = 1
  Basis Set: 6-311+G*
    Blend: 6-311+G*
  Basis Set: (6-311+G* AUX)
    Blend: HEAVY-AUG-CC-PVTZ-JKFIT

    Orbital Energies [Eh]
    ---------------------

    Doubly Occupied:

       1A    -19.245197     2A    -10.328428     3A    -10.279848
       4A    -10.272727     5A    -10.269106     6A     -1.117104
       7A     -0.895675     8A     -0.820341     9A     -0.725852
      10A     -0.676142    11A     -0.601203    12A     -0.565150
      13A     -0.535869    14A     -0.510206    15A     -0.480639
      16A     -0.465327    17A     -0.430279    18A     -0.420554
      19A     -0.410589    20A     -0.404507    21A     -0.360706

  @DF-RKS Final Energy:  -233.64246041349119

   => Energetics <=

    Nuclear Repulsion Energy =            185.0610531840870578
    One-Electron Energy =                -682.0605541718994118
    Two-Electron Energy =                 286.6032004614397692
    DFT Exchange-Correlation Energy =     -23.2392189885694442
    Empirical Dispersion Energy =          -0.0069408985491925
    VV10 Nonlocal Energy =                  0.0000000000000000
    Total Energy =                       -233.6424604134911931

  Dipole Moment: [D]
     X:    -0.0256      Y:    -1.6365      Z:     0.7204     Total:     1.7882

*** Psi4 exiting successfully. Buy a developer a beer!
