                               Psi4 1.3.2 release

  ==> Input File <==

--------------------------------------------------------------------------
molecule {
0 1
 O   -2.195246    0.467184   -0.403523
 C    0.007216   -0.418061   -0.620233
 C    1.356155   -0.782690    0.015352
 C   -0.988434    0.196511    0.346626
 C    2.115120    0.399749    0.628669
 H    0.162181    0.290739   -1.438611
 H   -0.450943   -1.308670   -1.055721
 H    1.981060   -1.251811   -0.748717
 H    1.195065   -1.543927    0.786784
 H   -1.187445   -0.499508    1.171840
 H   -0.593012    1.126928    0.767877
 H    2.330064    1.157494   -0.128630
 H    3.069887    0.070663    1.043045
 H    1.555894    0.873606    1.436778
 H   -2.871287    0.867507    0.159109
}
memory 700MB
set_num_threads(8)
psi4_io.set_default_path("/home/daniele/PSI4_sctatch/Psi4-1butanol_3D")
set freeze_core True
E, wfn = energy('wb97x-d/6-311+G*',return_wfn=True)
oeprop(wfn,"WIBERG_LOWDIN_INDICES")
clean()
--------------------------------------------------------------------------

    Molecular point group: c1

    Geometry (in Angstrom), charge = 0, multiplicity = 1:

       Center              X                  Y                   Z               Mass
    ------------   -----------------  -----------------  -----------------  -----------------
         O           -2.195245986961     0.467184009127    -0.403523097974    15.994914619570
         C            0.007216013039    -0.418060990873    -0.620233097974    12.000000000000
         C            1.356155013039    -0.782689990873     0.015351902026    12.000000000000
         C           -0.988433986961     0.196511009127     0.346625902026    12.000000000000
         C            2.115120013039     0.399749009127     0.628668902026    12.000000000000
         H            0.162181013039     0.290739009127    -1.438611097974     1.007825032230
         H           -0.450942986961    -1.308669990873    -1.055721097974     1.007825032230
         H            1.981060013039    -1.251810990873    -0.748717097974     1.007825032230
         H            1.195065013039    -1.543926990873     0.786783902026     1.007825032230
         H           -1.187444986961    -0.499507990873     1.171839902026     1.007825032230
         H           -0.593011986961     1.126928009127     0.767876902026     1.007825032230
         H            2.330064013039     1.157494009127    -0.128630097974     1.007825032230
         H            3.069887013039     0.070663009127     1.043044902026     1.007825032230
         H            1.555894013039     0.873606009127     1.436777902026     1.007825032230
         H           -2.871286986961     0.867507009127     0.159108902026     1.007825032230

  Charge       = 0
  Multiplicity = 1
  Basis Set: 6-311+G*
    Blend: 6-311+G*
  Basis Set: (6-311+G* AUX)
    Blend: HEAVY-AUG-CC-PVTZ-JKFIT

    Orbital Energies [Eh]
    ---------------------

    Doubly Occupied:

       1A    -19.244633     2A    -10.327186     3A    -10.280103
       4A    -10.273120     5A    -10.270347     6A     -1.116202
       7A     -0.897138     8A     -0.817383     9A     -0.737345
      10A     -0.665398    11A     -0.603196    12A     -0.565683
      13A     -0.537485    14A     -0.506930    15A     -0.485059
      16A     -0.464493    17A     -0.437736    18A     -0.419605
      19A     -0.412194    20A     -0.401093    21A     -0.359913

  @DF-RKS Final Energy:  -233.64578150394399

   => Energetics <=

    Nuclear Repulsion Energy =            187.0841939030351853
    One-Electron Energy =                -686.0978245462332552
    Two-Electron Energy =                 288.6166938270003470
    DFT Exchange-Correlation Energy =     -23.2414933740674385
    Empirical Dispersion Energy =          -0.0073513136788035
    VV10 Nonlocal Energy =                  0.0000000000000000
    Total Energy =                       -233.6457815039439936

  Dipole Moment: [D]
     X:     0.3847      Y:     0.2606      Z:     1.7016     Total:     1.7639

*** Psi4 exiting successfully. Buy a developer a beer!
