                               Psi4 1.3.2 release

  ==> Input File <==

--------------------------------------------------------------------------
molecule {
0 1
 O   -1.675122   -0.904317   -0.309613
 C   -0.016005    0.823647    0.097544
 C    0.980044   -0.339774    0.073250
 C   -1.477308    0.402516    0.278712
 C    2.421500    0.144665   -0.105864
 H    0.244441    1.525623    0.895390
 H    0.089407    1.372169   -0.844575
 H    0.704502   -1.021933   -0.729175
 H    0.898445   -0.913159    1.001864
 H   -1.710861    0.350646    1.349653
 H   -2.143174    1.142585   -0.177883
 H    2.534985    0.694279   -1.043844
 H    3.118441   -0.695292   -0.124897
 H    2.721082    0.810233    0.707935
 H   -2.592847   -1.189570   -0.212377
}
memory 700MB
set_num_threads(8)
psi4_io.set_default_path("/home/daniele/PSI4_sctatch/Psi4-1butanol_3D")
set freeze_core True
E, wfn = energy('wb97x-d/6-311+G*',return_wfn=True)
oeprop(wfn,"WIBERG_LOWDIN_INDICES")
clean()
--------------------------------------------------------------------------

    Molecular point group: c1

    Geometry (in Angstrom), charge = 0, multiplicity = 1:

       Center              X                  Y                   Z               Mass
    ------------   -----------------  -----------------  -----------------  -----------------
         O           -1.675121984495    -0.904316963336    -0.309612924243    15.994914619570
         C           -0.016004984495     0.823647036664     0.097544075757    12.000000000000
         C            0.980044015505    -0.339773963336     0.073250075757    12.000000000000
         C           -1.477307984495     0.402516036664     0.278712075757    12.000000000000
         C            2.421500015505     0.144665036664    -0.105863924243    12.000000000000
         H            0.244441015505     1.525623036664     0.895390075757     1.007825032230
         H            0.089407015505     1.372169036664    -0.844574924243     1.007825032230
         H            0.704502015505    -1.021932963336    -0.729174924243     1.007825032230
         H            0.898445015505    -0.913158963336     1.001864075757     1.007825032230
         H           -1.710860984495     0.350646036664     1.349653075757     1.007825032230
         H           -2.143173984495     1.142585036664    -0.177882924243     1.007825032230
         H            2.534985015505     0.694279036664    -1.043843924243     1.007825032230
         H            3.118441015505    -0.695291963336    -0.124896924243     1.007825032230
         H            2.721082015505     0.810233036664     0.707935075757     1.007825032230
         H           -2.592846984495    -1.189569963336    -0.212376924243     1.007825032230

  Charge       = 0
  Multiplicity = 1
  Basis Set: 6-311+G*
    Blend: 6-311+G*
  Basis Set: (6-311+G* AUX)
    Blend: HEAVY-AUG-CC-PVTZ-JKFIT

    Orbital Energies [Eh]
    ---------------------

    Doubly Occupied:

       1A    -19.245240     2A    -10.329166     3A    -10.274947
       4A    -10.265707     5A    -10.261742     6A     -1.117491
       7A     -0.888827     8A     -0.817302     9A     -0.723905
      10A     -0.667483    11A     -0.603173    12A     -0.562087
      13A     -0.519498    14A     -0.517446    15A     -0.473571
      16A     -0.455065    17A     -0.441106    18A     -0.416169
      19A     -0.405654    20A     -0.395412    21A     -0.357256

  @DF-RKS Final Energy:  -233.64293747347992

   => Energetics <=

    Nuclear Repulsion Energy =            188.0978084571533486
    One-Electron Energy =                -688.2886341796875058
    Two-Electron Energy =                 289.7953552190620599
    DFT Exchange-Correlation Energy =     -23.2405100229535115
    Empirical Dispersion Energy =          -0.0069569470543121
    VV10 Nonlocal Energy =                  0.0000000000000000
    Total Energy =                       -233.6429374734799183

  Dipole Moment: [D]
     X:    -1.3548      Y:     0.8153      Z:     0.7611     Total:     1.7549

*** Psi4 exiting successfully. Buy a developer a beer!
