                               Psi4 1.3.2 release

  ==> Input File <==

--------------------------------------------------------------------------
molecule {
0 1
 O   -2.010822   -1.148628    0.770762
 C   -0.173950    0.124415   -0.252552
 C    1.312713    0.486452   -0.185095
 C   -0.604603   -0.816052    0.864489
 C    1.741291    1.435094   -1.307174
 H   -0.776098    1.039393   -0.199551
 H   -0.407050   -0.346081   -1.212151
 H    1.912685   -0.429263   -0.231416
 H    1.533147    0.946663    0.785272
 H   -0.068755   -1.762532    0.786484
 H   -0.368429   -0.379121    1.842606
 H    1.563180    0.984184   -2.286893
 H    2.802212    1.679603   -1.237686
 H    1.175961    2.369675   -1.265114
 H   -2.547040   -0.517275    1.267871
}
memory 700MB
set_num_threads(8)
psi4_io.set_default_path("/home/daniele/PSI4_sctatch/Psi4-1butanol_3D")
set freeze_core True
E, wfn = energy('wb97x-d/6-311+G*',return_wfn=True)
oeprop(wfn,"WIBERG_LOWDIN_INDICES")
clean()
--------------------------------------------------------------------------

    Molecular point group: c1

    Geometry (in Angstrom), charge = 0, multiplicity = 1:

       Center              X                  Y                   Z               Mass
    ------------   -----------------  -----------------  -----------------  -----------------
         O           -2.010822188826    -1.148628025324     0.770761837286    15.994914619570
         C           -0.173950188826     0.124414974676    -0.252552162714    12.000000000000
         C            1.312712811174     0.486451974676    -0.185095162714    12.000000000000
         C           -0.604603188826    -0.816052025324     0.864488837286    12.000000000000
         C            1.741290811174     1.435093974676    -1.307174162714    12.000000000000
         H           -0.776098188826     1.039392974676    -0.199551162714     1.007825032230
         H           -0.407050188826    -0.346081025324    -1.212151162714     1.007825032230
         H            1.912684811174    -0.429263025324    -0.231416162714     1.007825032230
         H            1.533146811174     0.946662974676     0.785271837286     1.007825032230
         H           -0.068755188826    -1.762532025324     0.786483837286     1.007825032230
         H           -0.368429188826    -0.379121025324     1.842605837286     1.007825032230
         H            1.563179811174     0.984183974676    -2.286893162714     1.007825032230
         H            2.802211811174     1.679602974676    -1.237686162714     1.007825032230
         H            1.175960811174     2.369674974676    -1.265114162714     1.007825032230
         H           -2.547040188826    -0.517275025324     1.267870837286     1.007825032230

  Charge       = 0
  Multiplicity = 1
  Basis Set: 6-311+G*
    Blend: 6-311+G*
  Basis Set: (6-311+G* AUX)
    Blend: HEAVY-AUG-CC-PVTZ-JKFIT

    Orbital Energies [Eh]
    ---------------------

    Doubly Occupied:

       1A    -19.244351     2A    -10.328336     3A    -10.282311
       4A    -10.276138     5A    -10.271339     6A     -1.115921
       7A     -0.898892     8A     -0.821364     9A     -0.729326
      10A     -0.680887    11A     -0.603094    12A     -0.562456
      13A     -0.529258    14A     -0.518941    15A     -0.479521
      16A     -0.464067    17A     -0.443094    18A     -0.424190
      19A     -0.416729    20A     -0.406170    21A     -0.356585

  @DF-RKS Final Energy:  -233.64598195605859

   => Energetics <=

    Nuclear Repulsion Energy =            184.0442792188860324
    One-Electron Energy =                -679.9588747949566141
    Two-Electron Energy =                 285.5145448764293405
    DFT Exchange-Correlation Energy =     -23.2389128381590702
    Empirical Dispersion Energy =          -0.0070184182582687
    VV10 Nonlocal Energy =                  0.0000000000000000
    Total Energy =                       -233.6459819560586197

  Dipole Moment: [D]
     X:     0.8418      Y:     1.5798      Z:     0.8667     Total:     1.9889

*** Psi4 exiting successfully. Buy a developer a beer!
