                               Psi4 1.3.2 release

  ==> Input File <==

--------------------------------------------------------------------------
molecule {
0 1
 O   -1.619471   -1.017857    0.087844
 C   -0.028426    0.847765    0.015326
 C    0.971071   -0.312006   -0.069317
 C   -1.510684    0.426144    0.104936
 C    2.414243    0.192975   -0.151009
 H    0.228600    1.459902    0.884939
 H    0.114792    1.489448   -0.859113
 H    0.740094   -0.929264   -0.938103
 H    0.849745   -0.961168    0.798440
 H   -1.954491    0.817079    1.026965
 H   -2.069522    0.846787   -0.738119
 H    2.563217    0.821653   -1.032779
 H    3.117914   -0.639335   -0.211503
 H    2.674608    0.787757    0.728428
 H   -2.545208   -1.289658    0.138133
}
memory 700MB
set_num_threads(8)
psi4_io.set_default_path("/home/daniele/PSI4_sctatch/Psi4-1butanol_3D")
set freeze_core True
E, wfn = energy('wb97x-d/6-311+G*',return_wfn=True)
oeprop(wfn,"WIBERG_LOWDIN_INDICES")
clean()
--------------------------------------------------------------------------

    Molecular point group: c1

    Geometry (in Angstrom), charge = 0, multiplicity = 1:

       Center              X                  Y                   Z               Mass
    ------------   -----------------  -----------------  -----------------  -----------------
         O           -1.619471051057    -1.017857085258     0.087844120801    15.994914619570
         C           -0.028426051057     0.847764914742     0.015326120801    12.000000000000
         C            0.971070948943    -0.312006085258    -0.069316879199    12.000000000000
         C           -1.510684051057     0.426143914742     0.104936120801    12.000000000000
         C            2.414242948943     0.192974914742    -0.151008879199    12.000000000000
         H            0.228599948943     1.459901914742     0.884939120801     1.007825032230
         H            0.114791948943     1.489447914742    -0.859112879199     1.007825032230
         H            0.740093948943    -0.929264085258    -0.938102879199     1.007825032230
         H            0.849744948943    -0.961168085258     0.798440120801     1.007825032230
         H           -1.954491051057     0.817078914742     1.026965120801     1.007825032230
         H           -2.069522051057     0.846786914742    -0.738118879199     1.007825032230
         H            2.563216948943     0.821652914742    -1.032778879199     1.007825032230
         H            3.117913948943    -0.639335085258    -0.211502879199     1.007825032230
         H            2.674607948943     0.787756914742     0.728428120801     1.007825032230
         H           -2.545208051057    -1.289658085258     0.138133120801     1.007825032230

  Charge       = 0
  Multiplicity = 1
  Basis Set: 6-311+G*
    Blend: 6-311+G*
  Basis Set: (6-311+G* AUX)
    Blend: HEAVY-AUG-CC-PVTZ-JKFIT

    Orbital Energies [Eh]
    ---------------------

    Doubly Occupied:

       1A    -19.244385     2A    -10.329176     3A    -10.275206
       4A    -10.265138     5A    -10.261271     6A     -1.116482
       7A     -0.887204     8A     -0.815795     9A     -0.724355
      10A     -0.667278    11A     -0.597390    12A     -0.567269
      13A     -0.517356    14A     -0.516290    15A     -0.473922
      16A     -0.449698    17A     -0.442121    18A     -0.415517
      19A     -0.406318    20A     -0.397208    21A     -0.353328

  @DF-RKS Final Energy:  -233.63892103272329

   => Energetics <=

    Nuclear Repulsion Energy =            187.9413830751188641
    One-Electron Energy =                -687.9993469095172713
    Two-Electron Energy =                 289.6655324180248954
    DFT Exchange-Correlation Energy =     -23.2396008761128741
    Empirical Dispersion Energy =          -0.0068887402369413
    VV10 Nonlocal Energy =                  0.0000000000000000
    Total Energy =                       -233.6389210327233172

  Dipole Moment: [D]
     X:    -1.4564      Y:     0.9676      Z:     0.1011     Total:     1.7514

*** Psi4 exiting successfully. Buy a developer a beer!
