                               Psi4 1.3.2 release

  ==> Input File <==

--------------------------------------------------------------------------
molecule {
0 1
 O   -2.275085    0.309081   -0.598295
 C    0.010432    0.521402    0.109496
 C    1.269101   -0.101093    0.785019
 C   -1.223392   -0.406398    0.054231
 C    2.505522   -0.185195   -0.133706
 H   -0.276545    1.435370    0.646538
 H    0.241128    0.842087   -0.914826
 H    1.040294   -1.105699    1.164291
 H    1.528927    0.489347    1.673740
 H   -0.979860   -1.327088   -0.490843
 H   -1.520710   -0.701543    1.068650
 H    2.299823   -0.797649   -1.018254
 H    3.352316   -0.635797    0.395080
 H    2.814624    0.809518   -0.472804
 H   -3.061500   -0.267433   -0.632894
}
set optking {
  frozen_dihedral = ("
    4 2 3 5
    2 4 1 15
    3 2 4 1
    12 5 3 2
  ")
}
set {
  geom_maxiter 400
  g_convergence GAU_LOOSE
  dynamic_level 1
}
memory 700MB
set_num_threads(8)
psi4_io.set_default_path("/home/daniele/PSI4_sctatch/Psi4-1butanol_3D")
for _ in range(1):
  try:
    set opt_coordinates both
    optimize('wb97x-d/6-311G')
    break
  except OptimizationConvergenceError:
    break
  else:
    try:
      set opt_coordinates cartesian
      optimize('wb97x-d/6-311G')
      break
    except OptimizationConvergenceError:
      pass
clean()
--------------------------------------------------------------------------

    Molecular point group: c1
  Charge       = 0
  Multiplicity = 1
  Basis Set: 6-311G
    Blend: 6-311G
  Basis Set: (6-311G AUX)
    Blend: CC-PVTZ-JKFIT
  @DF-RKS Final Energy:  -233.57641821057371
    Total Energy =                       -233.5764182105737632
    Molecular point group: c1
  Basis Set: 6-311G
    Blend: 6-311G
  Basis Set: (6-311G AUX)
    Blend: CC-PVTZ-JKFIT
  Basis Set: 6-311G
    Blend: 6-311G
  Basis Set: (6-311G AUX)
    Blend: CC-PVTZ-JKFIT
  @DF-RKS Final Energy:  -233.57798336209467
    Total Energy =                       -233.5779833620946704
  Basis Set: 6-311G
    Blend: 6-311G
  Basis Set: (6-311G AUX)
    Blend: CC-PVTZ-JKFIT
  Charge       = 0
  Multiplicity = 1
  Basis Set: 6-311G
    Blend: 6-311G
  Basis Set: (6-311G AUX)
    Blend: CC-PVTZ-JKFIT

    Orbital Energies [Eh]
    ---------------------

    Doubly Occupied:

       1A    -19.234871     2A    -10.329958     3A    -10.280832
       4A    -10.273430     5A    -10.269357     6A     -1.119735
       7A     -0.897620     8A     -0.822489     9A     -0.727743
      10A     -0.677806    11A     -0.597665    12A     -0.565935
      13A     -0.536100    14A     -0.510196    15A     -0.478082
      16A     -0.464648    17A     -0.424104    18A     -0.419259
      19A     -0.407701    20A     -0.399265    21A     -0.351923

  @DF-RKS Final Energy:  -233.57807675989358

   => Energetics <=

    Nuclear Repulsion Energy =            185.0610625585568414
    One-Electron Energy =                -681.9851699459650263
    Two-Electron Energy =                 286.5927985689060051
    DFT Exchange-Correlation Energy =     -23.2398270427128466
    Empirical Dispersion Energy =          -0.0069408986785851
    VV10 Nonlocal Energy =                  0.0000000000000000
    Total Energy =                       -233.5780767598936052

  Dipole Moment: [D]
     X:    -0.1255      Y:    -1.7510      Z:     0.7139     Total:     1.8951

    Molecular point group: c1
  Basis Set: 6-311G
    Blend: 6-311G
  Basis Set: (6-311G AUX)
    Blend: CC-PVTZ-JKFIT

  -Total Gradient:
     Atom            X                  Y                   Z
    ------   -----------------  -----------------  -----------------
       1        0.000597003733    -0.000851363635     0.000710855257
       2        0.000714072608     0.000168999257     0.000096935279
       3       -0.000443185648     0.000087769026    -0.000114981877
       4       -0.000382157874     0.000433708242    -0.000519309868
       5       -0.000061948828     0.000230094675    -0.000237884754
       6       -0.000054939617     0.000021781035    -0.000066957819
       7       -0.000004279320    -0.000040615105     0.000059005903
       8        0.000015936457     0.000051943016    -0.000073833442
       9        0.000043127746    -0.000007336802    -0.000089167956
      10       -0.000182757281    -0.000124157327    -0.000095726680
      11       -0.000181009437    -0.000071481951     0.000070784555
      12        0.000098427563    -0.000053808789     0.000215989664
      13        0.000002404121    -0.000021032642     0.000048862708
      14       -0.000122890593    -0.000169393185     0.000091214974
      15        0.000063471152     0.000274281494    -0.000034718929

  **** Optimization is complete! (in 3 steps) ****
    Final optimized geometry and variables:
    Molecular point group: c1

    Geometry (in Angstrom), charge = 0, multiplicity = 1:

    O           -2.245527690898     0.307774906813    -0.636487447011
    C            0.023143263676     0.514436041742     0.086322173339
    C            1.239069382472    -0.144721770007     0.774239062518
    C           -1.182200464697    -0.406947800962     0.031310131182
    C            2.463787607495    -0.242801987239    -0.140484664020
    H           -0.273772885234     1.430671770971     0.599545989974
    H            0.274383297353     0.800510360999    -0.937969627991
    H            0.972519846282    -1.151502461090     1.115437717513
    H            1.505869430195     0.412579395634     1.675218982574
    H           -0.924504494044    -1.322638679276    -0.516198705004
    H           -1.483229613501    -0.689355727365     1.047961989827
    H            2.237089888242    -0.836891332869    -1.029044955281
    H            3.308524766410    -0.709613899898     0.370040365936
    H            2.777207564688     0.748328934667    -0.474958186344
    H           -3.044522099973    -0.232364559486    -0.695148647809

*** Psi4 exiting successfully. Buy a developer a beer!
