                               Psi4 1.3.2 release

  ==> Input File <==

--------------------------------------------------------------------------
molecule {
0 1
 O   -2.222318    0.272696   -0.606023
 C   -0.015305    0.628464    0.273441
 C    1.292493    0.042750    0.872918
 C   -1.098261   -0.421446   -0.060260
 C    2.350504   -0.340606   -0.181695
 H   -0.456378    1.325804    0.998647
 H    0.200782    1.226419   -0.621301
 H    1.068967   -0.819032    1.514820
 H    1.739278    0.793033    1.539313
 H   -0.706585   -1.153664   -0.777342
 H   -1.381436   -0.975738    0.843420
 H    1.964710   -1.097417   -0.872865
 H    3.245997   -0.750355    0.297507
 H    2.656836    0.530807   -0.770464
 H   -2.914208   -0.382806   -0.814693
}
set optking {
  frozen_dihedral = ("
    4 2 3 5
    2 4 1 15
    3 2 4 1
    12 5 3 2
  ")
}
set {
  geom_maxiter 400
  g_convergence GAU_LOOSE
  dynamic_level 1
}
memory 700MB
set_num_threads(8)
psi4_io.set_default_path("/home/daniele/PSI4_sctatch/Psi4-1butanol_3D")
for _ in range(1):
  try:
    set opt_coordinates both
    optimize('wb97x-d/6-311G')
    break
  except OptimizationConvergenceError:
    break
  else:
    try:
      set opt_coordinates cartesian
      optimize('wb97x-d/6-311G')
      break
    except OptimizationConvergenceError:
      pass
clean()
--------------------------------------------------------------------------

    Molecular point group: c1
  Charge       = 0
  Multiplicity = 1
  Basis Set: 6-311G
    Blend: 6-311G
  Basis Set: (6-311G AUX)
    Blend: CC-PVTZ-JKFIT
  @DF-RKS Final Energy:  -233.57870511873196
    Total Energy =                       -233.5787051187319037
    Molecular point group: c1
  Basis Set: 6-311G
    Blend: 6-311G
  Basis Set: (6-311G AUX)
    Blend: CC-PVTZ-JKFIT
  Basis Set: 6-311G
    Blend: 6-311G
  Basis Set: (6-311G AUX)
    Blend: CC-PVTZ-JKFIT
  @DF-RKS Final Energy:  -233.58020599842880
    Total Energy =                       -233.5802059984288235
  Basis Set: 6-311G
    Blend: 6-311G
  Basis Set: (6-311G AUX)
    Blend: CC-PVTZ-JKFIT
  Charge       = 0
  Multiplicity = 1
  Basis Set: 6-311G
    Blend: 6-311G
  Basis Set: (6-311G AUX)
    Blend: CC-PVTZ-JKFIT

    Orbital Energies [Eh]
    ---------------------

    Doubly Occupied:

       1A    -19.234835     2A    -10.329573     3A    -10.280961
       4A    -10.273781     5A    -10.269960     6A     -1.119504
       7A     -0.898884     8A     -0.820862     9A     -0.732939
      10A     -0.673510    11A     -0.598730    12A     -0.564142
      13A     -0.540928    14A     -0.506796    15A     -0.476570
      16A     -0.469525    17A     -0.424086    18A     -0.418792
      19A     -0.412487    20A     -0.396834    21A     -0.351569

  @DF-RKS Final Energy:  -233.58030427713805

   => Energetics <=

    Nuclear Repulsion Energy =            186.1855937500201321
    One-Electron Energy =                -684.2247366239018902
    Two-Electron Energy =                 287.7065752412895563
    DFT Exchange-Correlation Energy =     -23.2405467657639164
    Empirical Dispersion Energy =          -0.0071898787819349
    VV10 Nonlocal Energy =                  0.0000000000000000
    Total Energy =                       -233.5803042771380547

  Dipole Moment: [D]
     X:     0.1340      Y:    -1.8455      Z:     0.3209     Total:     1.8780

    Molecular point group: c1
  Basis Set: 6-311G
    Blend: 6-311G
  Basis Set: (6-311G AUX)
    Blend: CC-PVTZ-JKFIT

  -Total Gradient:
     Atom            X                  Y                   Z
    ------   -----------------  -----------------  -----------------
       1        0.000704350682    -0.001002579624     0.000768881176
       2        0.002255473809     0.000764016587    -0.002722644511
       3       -0.002091096567    -0.002927832768     0.000647839499
       4       -0.001433580996     0.000876358255     0.001260397424
       5        0.000866434919     0.002332160718    -0.000169965870
       6       -0.000026678486     0.000064836336     0.000024933808
       7       -0.000004478045    -0.000117900582     0.000072196660
       8        0.000013484363     0.000061034571    -0.000158394493
       9       -0.000029316695     0.000060252577    -0.000067831643
      10       -0.000102269418    -0.000172602368    -0.000154466120
      11       -0.000123111248    -0.000087165399     0.000058705717
      12        0.000183004292    -0.000212809926     0.000305029914
      13       -0.000046458502     0.000029357847     0.000018901591
      14       -0.000131591595    -0.000073705456     0.000144458669
      15        0.000004033826     0.000273216524     0.000020234553

  **** Optimization is complete! (in 3 steps) ****
    Final optimized geometry and variables:
    Molecular point group: c1

    Geometry (in Angstrom), charge = 0, multiplicity = 1:

    O           -2.202798475435     0.263195612201    -0.643631257274
    C           -0.010498835311     0.612671201947     0.240536591719
    C            1.266628765078    -0.001625363555     0.839972832586
    C           -1.065527246947    -0.430604033402    -0.083161585105
    C            2.302832887897    -0.394962934955    -0.218539176010
    H           -0.457858792540     1.324024041882     0.938267562285
    H            0.225954705592     1.168548236163    -0.669580975973
    H            1.008218946407    -0.873230269905     1.450613888899
    H            1.723673930770     0.719410320051     1.522555625940
    H           -0.670730959489    -1.165701210842    -0.795882837716
    H           -1.350595438423    -0.960869733620     0.833908552389
    H            1.900080054163    -1.133360206197    -0.916238736248
    H            3.194966391080    -0.825588381634     0.240187832714
    H            2.609309013969     0.478703605745    -0.797275689608
    H           -2.911917690076    -0.354775419842    -0.864801428181

*** Psi4 exiting successfully. Buy a developer a beer!
