                               Psi4 1.3.2 release

  ==> Input File <==

--------------------------------------------------------------------------
molecule {
0 1
 O   -1.789419    0.498516    0.832412
 C    0.096123   -0.097654   -0.548593
 C    1.121802   -0.137199    0.618055
 C   -1.355423   -0.447108   -0.149195
 C    2.559418    0.219543    0.190880
 H    0.091156    0.901847   -1.003239
 H    0.407322   -0.794498   -1.338281
 H    1.120391   -1.136311    1.073121
 H    0.803610    0.554882    1.409225
 H   -2.002044   -0.417504   -1.035227
 H   -1.403042   -1.471306    0.241126
 H    2.929025   -0.474732   -0.571084
 H    3.241344    0.171726    1.046365
 H    2.608512    1.234070   -0.219073
 H   -2.703697    0.274638    1.088929
}
set optking {
  frozen_dihedral = ("
    3 2 4 1
    2 4 1 15
    4 2 3 5
    12 5 3 2
  ")
}
set {
  geom_maxiter 400
  g_convergence GAU_LOOSE
  dynamic_level 1
}
memory 700MB
set_num_threads(8)
psi4_io.set_default_path("/home/daniele/PSI4_sctatch/Psi4-1butanol_3D")
for _ in range(1):
  try:
    set opt_coordinates both
    optimize('wb97x-d/6-311G')
    break
  except OptimizationConvergenceError:
    break
  else:
    try:
      set opt_coordinates cartesian
      optimize('wb97x-d/6-311G')
      break
    except OptimizationConvergenceError:
      pass
clean()
--------------------------------------------------------------------------

    Molecular point group: c1
  Charge       = 0
  Multiplicity = 1
  Basis Set: 6-311G
    Blend: 6-311G
  Basis Set: (6-311G AUX)
    Blend: CC-PVTZ-JKFIT
  @DF-RKS Final Energy:  -233.58116375584120
    Total Energy =                       -233.5811637558412031
    Molecular point group: c1
  Basis Set: 6-311G
    Blend: 6-311G
  Basis Set: (6-311G AUX)
    Blend: CC-PVTZ-JKFIT
  Basis Set: 6-311G
    Blend: 6-311G
  Basis Set: (6-311G AUX)
    Blend: CC-PVTZ-JKFIT
  @DF-RKS Final Energy:  -233.58281018308554
    Total Energy =                       -233.5828101830855417
  Basis Set: 6-311G
    Blend: 6-311G
  Basis Set: (6-311G AUX)
    Blend: CC-PVTZ-JKFIT
  Charge       = 0
  Multiplicity = 1
  Basis Set: 6-311G
    Blend: 6-311G
  Basis Set: (6-311G AUX)
    Blend: CC-PVTZ-JKFIT

    Orbital Energies [Eh]
    ---------------------

    Doubly Occupied:

       1A    -19.235994     2A    -10.330629     3A    -10.275005
       4A    -10.268238     5A    -10.263081     6A     -1.120640
       7A     -0.893326     8A     -0.821354     9A     -0.725206
      10A     -0.669939    11A     -0.607765    12A     -0.553128
      13A     -0.527948    14A     -0.516411    15A     -0.470483
      16A     -0.457578    17A     -0.434793    18A     -0.414008
      19A     -0.404122    20A     -0.393327    21A     -0.351647

  @DF-RKS Final Energy:  -233.58296083495893

   => Energetics <=

    Nuclear Repulsion Energy =            187.7589113461790760
    One-Electron Energy =                -687.4981031888796679
    Two-Electron Energy =                 289.4042634647603904
    DFT Exchange-Correlation Energy =     -23.2409991844172268
    Empirical Dispersion Energy =          -0.0070332726015002
    VV10 Nonlocal Energy =                  0.0000000000000000
    Total Energy =                       -233.5829608349589535

  Dipole Moment: [D]
     X:    -1.2044      Y:    -1.3587      Z:    -0.5357     Total:     1.8930

    Molecular point group: c1
  Basis Set: 6-311G
    Blend: 6-311G
  Basis Set: (6-311G AUX)
    Blend: CC-PVTZ-JKFIT

  -Total Gradient:
     Atom            X                  Y                   Z
    ------   -----------------  -----------------  -----------------
       1        0.000664710355    -0.001791705788    -0.000564701606
       2        0.000686680050    -0.000502488105     0.000238421739
       3       -0.000496414721     0.000736829353    -0.000208589778
       4       -0.000714969926     0.001557967869     0.000542356065
       5        0.000391131556    -0.000011819427    -0.000187088959
       6       -0.000001338441    -0.000055457517     0.000088659097
       7       -0.000193794144     0.000010295554     0.000222965617
       8        0.000011659727     0.000095832280    -0.000095817857
       9        0.000033660583    -0.000064518657    -0.000114169365
      10       -0.000253347904     0.000009062611    -0.000338091904
      11        0.000036654652    -0.000152374190     0.000168782609
      12       -0.000090556901     0.000092377859     0.000122021570
      13        0.000017838323    -0.000006782121     0.000062830404
      14       -0.000139878515    -0.000195054677     0.000101961355
      15       -0.000004209987     0.000245271373    -0.000045285553

  **** Optimization is complete! (in 3 steps) ****
    Final optimized geometry and variables:
    Molecular point group: c1

    Geometry (in Angstrom), charge = 0, multiplicity = 1:

    O           -1.825837474347     0.488466777172     0.629518151279
    C            0.025688666289    -0.115994044994    -0.760273276304
    C            1.011312160826    -0.160579104833     0.409878354761
    C           -1.396756243214    -0.469762548849    -0.365348920300
    C            2.437513475351     0.203384125948    -0.010283582675
    H            0.025380266921     0.885795102301    -1.199669605985
    H            0.347058638827    -0.811124877589    -1.543500062122
    H            1.003048010512    -1.165528285308     0.846718819977
    H            0.660129355037     0.520254579785     1.186201371089
    H           -2.050950829278    -0.431457986540    -1.244301473940
    H           -1.426206123833    -1.487104621379     0.045848201265
    H            2.811987137722    -0.485249996404    -0.772115238082
    H            3.122399498169     0.167993553814     0.839029460421
    H            2.473186284703     1.212782216736    -0.426943271429
    H           -2.728175801607     0.306149449463     0.922506071545

*** Psi4 exiting successfully. Buy a developer a beer!
