                               Psi4 1.3.2 release

  ==> Input File <==

--------------------------------------------------------------------------
molecule {
0 1
 O   -2.120466   -0.350940   -0.819662
 C    0.049419    0.403538   -0.068087
 C    1.226200   -0.480308    0.421934
 C   -1.358792   -0.090983    0.362473
 C    2.613640    0.033249   -0.014215
 H    0.177967    1.427606    0.306893
 H    0.080937    0.483341   -1.162795
 H    1.092388   -1.503473    0.046092
 H    1.200603   -0.551384    1.517444
 H   -1.286798   -0.990967    0.985770
 H   -1.849158    0.670874    0.981660
 H    2.694045    0.077773   -1.105784
 H    3.405117   -0.629129    0.352287
 H    2.807199    1.035848    0.381938
 H   -3.007227   -0.656137   -0.550528
}
set optking {
  frozen_dihedral = ("
    3 2 4 1
    2 4 1 15
    4 2 3 5
    12 5 3 2
  ")
}
set {
  geom_maxiter 400
  g_convergence GAU_LOOSE
  dynamic_level 1
}
memory 700MB
set_num_threads(8)
psi4_io.set_default_path("/home/daniele/PSI4_sctatch/Psi4-1butanol_3D")
for _ in range(1):
  try:
    set opt_coordinates both
    optimize('wb97x-d/6-311G')
    break
  except OptimizationConvergenceError:
    break
  else:
    try:
      set opt_coordinates cartesian
      optimize('wb97x-d/6-311G')
      break
    except OptimizationConvergenceError:
      pass
clean()
--------------------------------------------------------------------------

    Molecular point group: c1
  Charge       = 0
  Multiplicity = 1
  Basis Set: 6-311G
    Blend: 6-311G
  Basis Set: (6-311G AUX)
    Blend: CC-PVTZ-JKFIT
  @DF-RKS Final Energy:  -233.57578600304006
    Total Energy =                       -233.5757860030400934
    Molecular point group: c1
  Basis Set: 6-311G
    Blend: 6-311G
  Basis Set: (6-311G AUX)
    Blend: CC-PVTZ-JKFIT
  Basis Set: 6-311G
    Blend: 6-311G
  Basis Set: (6-311G AUX)
    Blend: CC-PVTZ-JKFIT
  @DF-RKS Final Energy:  -233.57754153508159
    Total Energy =                       -233.5775415350815365
  Basis Set: 6-311G
    Blend: 6-311G
  Basis Set: (6-311G AUX)
    Blend: CC-PVTZ-JKFIT
  Charge       = 0
  Multiplicity = 1
  Basis Set: 6-311G
    Blend: 6-311G
  Basis Set: (6-311G AUX)
    Blend: CC-PVTZ-JKFIT

    Orbital Energies [Eh]
    ---------------------

    Doubly Occupied:

       1A    -19.233627     2A    -10.329547     3A    -10.277616
       4A    -10.273643     5A    -10.267425     6A     -1.118017
       7A     -0.896558     8A     -0.821120     9A     -0.726361
      10A     -0.677079    11A     -0.603784    12A     -0.553562
      13A     -0.532475    14A     -0.517771    15A     -0.474587
      16A     -0.456426    17A     -0.435323    18A     -0.415306
      19A     -0.406908    20A     -0.399105    21A     -0.348909

  @DF-RKS Final Energy:  -233.57767296422116

   => Energetics <=

    Nuclear Repulsion Energy =            184.9152570444954904
    One-Electron Energy =                -681.7399183066955857
    Two-Electron Energy =                 286.4938538728429762
    DFT Exchange-Correlation Energy =     -23.2400143090725706
    Empirical Dispersion Energy =          -0.0068512657914644
    VV10 Nonlocal Energy =                  0.0000000000000000
    Total Energy =                       -233.5776729642211365

  Dipole Moment: [D]
     X:    -0.6070      Y:    -0.2976      Z:     1.7414     Total:     1.8680

    Molecular point group: c1
  Basis Set: 6-311G
    Blend: 6-311G
  Basis Set: (6-311G AUX)
    Blend: CC-PVTZ-JKFIT

  -Total Gradient:
     Atom            X                  Y                   Z
    ------   -----------------  -----------------  -----------------
       1        0.000590432083    -0.000154355039     0.002011111408
       2        0.000517139084    -0.000311279452    -0.000214466992
       3       -0.000517096610    -0.000062528999    -0.000596696806
       4       -0.001062161758     0.000110044757    -0.001423448986
       5        0.000278383610     0.000368807655     0.000219426960
       6        0.000158167922    -0.000026867213     0.000008482782
       7       -0.000033460105    -0.000028892455     0.000248593850
       8        0.000064529591     0.000159847932     0.000012177775
       9        0.000051585587     0.000046879777    -0.000101761623
      10       -0.000000161799    -0.000222345577    -0.000083429787
      11       -0.000251459186     0.000147731416     0.000133825755
      12       -0.000084712962    -0.000052516111     0.000192778506
      13       -0.000003807739    -0.000008964712    -0.000007712432
      14       -0.000133361556    -0.000198735206    -0.000059595459
      15        0.000342061919     0.000145005152    -0.000286800287

  **** Optimization is complete! (in 3 steps) ****
    Final optimized geometry and variables:
    Molecular point group: c1

    Geometry (in Angstrom), charge = 0, multiplicity = 1:

    O           -2.135311500327    -0.195785382956    -0.766830245335
    C            0.037154094725     0.514761222318    -0.010541206282
    C            1.178799868089    -0.402368117610     0.439500351037
    C           -1.344440783456     0.024024844852     0.427042010758
    C            2.553468747616     0.103812889931    -0.001658116337
    H            0.222820943038     1.527443763570     0.358738742650
    H            0.021499064999     0.574029840895    -1.100886739907
    H            1.006762236168    -1.405393199365     0.036672755481
    H            1.160653749042    -0.498370608512     1.530666205369
    H           -1.248594672918    -0.914090123003     0.987732561381
    H           -1.836355671878     0.757172740073     1.075878221966
    H            2.608537063112     0.176995029892    -1.090104517663
    H            3.349655172164    -0.564343597499     0.331292298573
    H            2.753693841152     1.096326743634     0.409042980877
    H           -3.023573023611    -0.502901934612    -0.541396245142

*** Psi4 exiting successfully. Buy a developer a beer!
