                               Psi4 1.3.2 release

  ==> Input File <==

--------------------------------------------------------------------------
molecule {
0 1
 O   -2.324318    0.356498   -0.551693
 C    0.051209    0.211903   -0.227420
 C    1.252064   -0.409054    0.531113
 C   -1.329873   -0.294889    0.241884
 C    2.623889    0.110119    0.054145
 H    0.068923    1.304456   -0.118157
 H    0.144413    0.003953   -1.301601
 H    1.228044   -1.501458    0.422328
 H    1.150001   -0.208179    1.605776
 H   -1.391541   -1.384615    0.128876
 H   -1.472239   -0.074155    1.307239
 H    2.782472   -0.107351   -1.007668
 H    3.435342   -0.362925    0.617421
 H    2.707426    1.193228    0.194300
 H   -3.200736    0.041379   -0.261125
}
set optking {
  frozen_dihedral = ("
    2 4 1 15
    4 2 3 5
    3 2 4 1
    12 5 3 2
  ")
}
set {
  geom_maxiter 400
  g_convergence GAU_LOOSE
  dynamic_level 1
}
memory 700MB
set_num_threads(8)
psi4_io.set_default_path("/home/daniele/PSI4_sctatch/Psi4-1butanol_3D")
for _ in range(1):
  try:
    set opt_coordinates both
    optimize('wb97x-d/6-311G')
    break
  except OptimizationConvergenceError:
    break
  else:
    try:
      set opt_coordinates cartesian
      optimize('wb97x-d/6-311G')
      break
    except OptimizationConvergenceError:
      pass
clean()
--------------------------------------------------------------------------

    Molecular point group: c1
  Charge       = 0
  Multiplicity = 1
  Basis Set: 6-311G
    Blend: 6-311G
  Basis Set: (6-311G AUX)
    Blend: CC-PVTZ-JKFIT
  @DF-RKS Final Energy:  -233.58101770205374
    Total Energy =                       -233.5810177020537708
    Molecular point group: c1
  Basis Set: 6-311G
    Blend: 6-311G
  Basis Set: (6-311G AUX)
    Blend: CC-PVTZ-JKFIT
  Basis Set: 6-311G
    Blend: 6-311G
  Basis Set: (6-311G AUX)
    Blend: CC-PVTZ-JKFIT
  @DF-RKS Final Energy:  -233.58244710174216
    Total Energy =                       -233.5824471017421331
  Basis Set: 6-311G
    Blend: 6-311G
  Basis Set: (6-311G AUX)
    Blend: CC-PVTZ-JKFIT
  Charge       = 0
  Multiplicity = 1
  Basis Set: 6-311G
    Blend: 6-311G
  Basis Set: (6-311G AUX)
    Blend: CC-PVTZ-JKFIT

    Orbital Energies [Eh]
    ---------------------

    Doubly Occupied:

       1A    -19.234950     2A    -10.329710     3A    -10.280893
       4A    -10.273847     5A    -10.269264     6A     -1.119428
       7A     -0.899706     8A     -0.823374     9A     -0.725998
      10A     -0.678478    11A     -0.595216    12A     -0.575065
      13A     -0.522898    14A     -0.519233    15A     -0.484381
      16A     -0.450342    17A     -0.435243    18A     -0.418450
      19A     -0.408174    20A     -0.400084    21A     -0.351929

  @DF-RKS Final Energy:  -233.58254957693123

   => Energetics <=

    Nuclear Repulsion Energy =            184.5097952124465621
    One-Electron Energy =                -680.8746696654750394
    Two-Electron Energy =                 286.0305377560625288
    DFT Exchange-Correlation Energy =     -23.2412590801544212
    Empirical Dispersion Energy =          -0.0069537998108696
    VV10 Nonlocal Energy =                  0.0000000000000000
    Total Energy =                       -233.5825495769312568

  Dipole Moment: [D]
     X:    -0.3128      Y:    -1.2684      Z:     1.3851     Total:     1.9040

    Molecular point group: c1
  Basis Set: 6-311G
    Blend: 6-311G
  Basis Set: (6-311G AUX)
    Blend: CC-PVTZ-JKFIT

  -Total Gradient:
     Atom            X                  Y                   Z
    ------   -----------------  -----------------  -----------------
       1        0.000717725956    -0.000781719722     0.000831181527
       2        0.000799660113     0.000109321181     0.000001536631
       3       -0.000421851725     0.000017902623    -0.000214163519
       4       -0.000835538544     0.000665895552    -0.000644601842
       5        0.000108704059     0.000173495362    -0.000137309953
       6       -0.000020247033    -0.000094252613     0.000007097384
       7       -0.000024878710     0.000003934764     0.000090483150
       8        0.000027971291     0.000085887797    -0.000033900852
       9        0.000032445317     0.000023741214    -0.000076916402
      10       -0.000100975182    -0.000184834031    -0.000037005983
      11       -0.000112321864     0.000041284332     0.000179825885
      12       -0.000074654028     0.000006410603     0.000186619873
      13        0.000035736477    -0.000044792019     0.000055798946
      14       -0.000068661266    -0.000183801277    -0.000006854357
      15       -0.000136831775     0.000152940765    -0.000191991590

  **** Optimization is complete! (in 3 steps) ****
    Final optimized geometry and variables:
    Molecular point group: c1

    Geometry (in Angstrom), charge = 0, multiplicity = 1:

    O           -2.299406123096     0.356774406923    -0.548739581120
    C            0.063947441501     0.213505245378    -0.227895045030
    C            1.235820308617    -0.413145937307     0.532500833906
    C           -1.283854585256    -0.296602490407     0.245933354056
    C            2.591884879710     0.109460002003     0.052031091656
    H            0.082186971307     1.300490694676    -0.114254088108
    H            0.156378631887     0.003668134280    -1.296643662275
    H            1.204066877930    -1.501917618146     0.418725844296
    H            1.126266006163    -0.210158447771     1.603159311965
    H           -1.335627688818    -1.385529384590     0.120933330893
    H           -1.417204849155    -0.066715876339     1.310535923578
    H            2.738232649468    -0.108727666026    -1.008134413158
    H            3.413770504300    -0.347049623132     0.606508970486
    H            2.658308163536     1.192004188188     0.181122568957
    H           -3.183738014422     0.067027922303    -0.287758977117

*** Psi4 exiting successfully. Buy a developer a beer!
