                               Psi4 1.3.2 release

  ==> Input File <==

--------------------------------------------------------------------------
molecule {
0 1
 O   -2.446800    0.343176   -0.245744
 C   -0.030667    0.204808   -0.123175
 C    1.223362   -0.406681    0.552497
 C   -1.374746   -0.286853    0.466705
 C    2.555242    0.094587   -0.041544
 H   -0.002517    1.299045   -0.037448
 H   -0.017283   -0.026628   -1.196350
 H    1.186686   -1.501074    0.471543
 H    1.206302   -0.180936    1.627136
 H   -1.445467   -1.379071    0.388522
 H   -1.428399   -0.043974    1.534920
 H    2.628780   -0.146407   -1.107533
 H    3.406083   -0.373106    0.465326
 H    2.655158    1.179754    0.070206
 H   -2.390658    0.102269   -1.189640
}
set optking {
  frozen_dihedral = ("
    2 4 1 15
    4 2 3 5
    3 2 4 1
    12 5 3 2
  ")
}
set {
  geom_maxiter 400
  g_convergence GAU_LOOSE
  dynamic_level 1
}
memory 700MB
set_num_threads(8)
psi4_io.set_default_path("/home/daniele/PSI4_sctatch/Psi4-1butanol_3D")
for _ in range(1):
  try:
    set opt_coordinates both
    optimize('wb97x-d/6-311G')
    break
  except OptimizationConvergenceError:
    break
  else:
    try:
      set opt_coordinates cartesian
      optimize('wb97x-d/6-311G')
      break
    except OptimizationConvergenceError:
      pass
clean()
--------------------------------------------------------------------------

    Molecular point group: c1
  Charge       = 0
  Multiplicity = 1
  Basis Set: 6-311G
    Blend: 6-311G
  Basis Set: (6-311G AUX)
    Blend: CC-PVTZ-JKFIT
  @DF-RKS Final Energy:  -233.58042340322984
    Total Energy =                       -233.5804234032297870
    Molecular point group: c1
  Basis Set: 6-311G
    Blend: 6-311G
  Basis Set: (6-311G AUX)
    Blend: CC-PVTZ-JKFIT
  Basis Set: 6-311G
    Blend: 6-311G
  Basis Set: (6-311G AUX)
    Blend: CC-PVTZ-JKFIT
  @DF-RKS Final Energy:  -233.58259815768622
    Total Energy =                       -233.5825981576862489
  Basis Set: 6-311G
    Blend: 6-311G
  Basis Set: (6-311G AUX)
    Blend: CC-PVTZ-JKFIT
  Charge       = 0
  Multiplicity = 1
  Basis Set: 6-311G
    Blend: 6-311G
  Basis Set: (6-311G AUX)
    Blend: CC-PVTZ-JKFIT

    Orbital Energies [Eh]
    ---------------------

    Doubly Occupied:

       1A    -19.234862     2A    -10.329510     3A    -10.286468
       4A    -10.282718     5A    -10.274243     6A     -1.119443
       7A     -0.904335     8A     -0.825009     9A     -0.734575
      10A     -0.687993    11A     -0.596153    12A     -0.564554
      13A     -0.532934    14A     -0.520563    15A     -0.478536
      16A     -0.466088    17A     -0.450465    18A     -0.425636
      19A     -0.415544    20A     -0.396414    21A     -0.349836

  @DF-RKS Final Energy:  -233.58270295440892

   => Energetics <=

    Nuclear Repulsion Energy =            184.1915961872390994
    One-Electron Energy =                -680.0805348571662989
    Two-Electron Energy =                 285.5536011464114949
    DFT Exchange-Correlation Energy =     -23.2402696000793263
    Empirical Dispersion Energy =          -0.0070958308138608
    VV10 Nonlocal Energy =                  0.0000000000000000
    Total Energy =                       -233.5827029544088873

  Dipole Moment: [D]
     X:     1.6845      Y:    -1.0094      Z:    -0.8841     Total:     2.1536

    Molecular point group: c1
  Basis Set: 6-311G
    Blend: 6-311G
  Basis Set: (6-311G AUX)
    Blend: CC-PVTZ-JKFIT

  -Total Gradient:
     Atom            X                  Y                   Z
    ------   -----------------  -----------------  -----------------
       1        0.000432097639    -0.000843226694    -0.000138173324
       2        0.001000883949    -0.000045475556     0.000571985355
       3       -0.000666476144    -0.000082374571    -0.000507375620
       4       -0.000331968809     0.001188994310     0.000324112954
       5        0.000107511131    -0.000034186676    -0.000053862062
       6       -0.000338734644    -0.000190119400     0.000153547095
       7       -0.000157365849    -0.000016637365    -0.000220455133
       8        0.000023855750     0.000114834819    -0.000075449625
       9        0.000126804063    -0.000093286435     0.000040252136
      10        0.000039298759    -0.000070563448    -0.000183952391
      11       -0.000029590134     0.000000548346     0.000072418537
      12       -0.000108249467     0.000083788201     0.000075484487
      13       -0.000031348281    -0.000039071313    -0.000005252796
      14       -0.000122303938    -0.000145403283     0.000015413617
      15       -0.000063786544     0.000143548685    -0.000145534397

  **** Optimization is complete! (in 3 steps) ****
    Final optimized geometry and variables:
    Molecular point group: c1

    Geometry (in Angstrom), charge = 0, multiplicity = 1:

    O           -2.406110903823     0.313592123724    -0.336482056268
    C            0.058918705339     0.236571151978    -0.219990777439
    C            1.274646121416    -0.414716232410     0.444908305186
    C           -1.265546763437    -0.303565180176     0.304364444237
    C            2.601351818411     0.135754616166    -0.083606326594
    H            0.077326034573     1.318873472089    -0.068229408541
    H            0.108600287713     0.067247455959    -1.303549797362
    H            1.238844203400    -1.497471466232     0.285609956301
    H            1.220904570519    -0.260216145869     1.527598909380
    H           -1.298851299129    -1.393183291619     0.181487107279
    H           -1.379843834647    -0.079127709628     1.363222099349
    H            2.692565905311    -0.033277829578    -1.159190296863
    H            3.452327705261    -0.341281160265     0.405264760565
    H            2.671996845907     1.211605160072     0.091249037846
    H           -2.380874179732     0.149131534053    -1.289831514124

*** Psi4 exiting successfully. Buy a developer a beer!
