                               Psi4 1.3.2 release

  ==> Input File <==

--------------------------------------------------------------------------
molecule {
0 1
 O   -2.406111    0.313592   -0.336482
 C    0.058919    0.236571   -0.219991
 C    1.274646   -0.414716    0.444908
 C   -1.265547   -0.303565    0.304364
 C    2.601352    0.135755   -0.083606
 H    0.077326    1.318873   -0.068229
 H    0.108600    0.067247   -1.303550
 H    1.238844   -1.497471    0.285610
 H    1.220905   -0.260216    1.527599
 H   -1.298851   -1.393183    0.181487
 H   -1.379844   -0.079128    1.363222
 H    2.692566   -0.033278   -1.159190
 H    3.452328   -0.341281    0.405265
 H    2.671997    1.211605    0.091249
 H   -2.380874    0.149132   -1.289832
}
memory 700MB
set_num_threads(8)
psi4_io.set_default_path("/home/daniele/PSI4_sctatch/Psi4-1butanol_3D")
set freeze_core True
E, wfn = energy('wb97x-d/6-311+G*',return_wfn=True)
oeprop(wfn,"WIBERG_LOWDIN_INDICES")
clean()
--------------------------------------------------------------------------

    Molecular point group: c1

    Geometry (in Angstrom), charge = 0, multiplicity = 1:

       Center              X                  Y                   Z               Mass
    ------------   -----------------  -----------------  -----------------  -----------------
         O           -2.406111008744     0.313591922573    -0.336481909584    15.994914619570
         C            0.058918991256     0.236570922573    -0.219990909584    12.000000000000
         C            1.274645991256    -0.414716077427     0.444908090416    12.000000000000
         C           -1.265547008744    -0.303565077427     0.304364090416    12.000000000000
         C            2.601351991256     0.135754922573    -0.083605909584    12.000000000000
         H            0.077325991256     1.318872922573    -0.068228909584     1.007825032230
         H            0.108599991256     0.067246922573    -1.303549909584     1.007825032230
         H            1.238843991256    -1.497471077427     0.285610090416     1.007825032230
         H            1.220904991256    -0.260216077427     1.527599090416     1.007825032230
         H           -1.298851008744    -1.393183077427     0.181487090416     1.007825032230
         H           -1.379844008744    -0.079128077427     1.363222090416     1.007825032230
         H            2.692565991256    -0.033278077427    -1.159189909584     1.007825032230
         H            3.452327991256    -0.341281077427     0.405265090416     1.007825032230
         H            2.671996991256     1.211604922573     0.091249090416     1.007825032230
         H           -2.380874008744     0.149131922573    -1.289831909584     1.007825032230

  Charge       = 0
  Multiplicity = 1
  Basis Set: 6-311+G*
    Blend: 6-311+G*
  Basis Set: (6-311+G* AUX)
    Blend: HEAVY-AUG-CC-PVTZ-JKFIT

    Orbital Energies [Eh]
    ---------------------

    Doubly Occupied:

       1A    -19.244494     2A    -10.327737     3A    -10.284490
       4A    -10.280699     5A    -10.273215     6A     -1.116205
       7A     -0.901363     8A     -0.822221     9A     -0.732262
      10A     -0.685272    11A     -0.597742    12A     -0.564343
      13A     -0.531614    14A     -0.520753    15A     -0.477516
      16A     -0.470910    17A     -0.450887    18A     -0.425797
      19A     -0.417519    20A     -0.404967    21A     -0.357519

  @DF-RKS Final Energy:  -233.64689266880552

   => Energetics <=

    Nuclear Repulsion Energy =            184.1916020955681290
    One-Electron Energy =                -680.1851712496213622
    Two-Electron Energy =                 285.5941159728578214
    DFT Exchange-Correlation Energy =     -23.2403436569198192
    Empirical Dispersion Energy =          -0.0070958306902342
    VV10 Nonlocal Energy =                  0.0000000000000000
    Total Energy =                       -233.6468926688055205

  Dipole Moment: [D]
     X:     1.6483      Y:    -0.9536      Z:    -0.8068     Total:     2.0681

*** Psi4 exiting successfully. Buy a developer a beer!
