                               Psi4 1.3.2 release

  ==> Input File <==

--------------------------------------------------------------------------
molecule {
0 1
 O   -2.276904    0.381012   -0.591236
 C    0.055015    0.374633   -0.067726
 C    1.224930   -0.309847    0.657591
 C   -1.264486   -0.345333    0.140992
 C    2.566086   -0.104032   -0.051821
 H   -0.050455    1.412553    0.254004
 H    0.248555    0.398598   -1.143917
 H    1.030930   -1.387199    0.720199
 H    1.286926    0.047538    1.689054
 H   -1.182710   -1.374479   -0.230639
 H   -1.509865   -0.385753    1.209957
 H    2.530307   -0.510380   -1.064854
 H    3.381182   -0.594421    0.483696
 H    2.807371    0.958521   -0.130984
 H   -3.144144   -0.032808   -0.488332
}
memory 700MB
set_num_threads(8)
psi4_io.set_default_path("/home/daniele/PSI4_sctatch/Psi4-1butanol_3D")
set freeze_core True
E, wfn = energy('wb97x-d/6-311+G*',return_wfn=True)
oeprop(wfn,"WIBERG_LOWDIN_INDICES")
clean()
--------------------------------------------------------------------------

    Molecular point group: c1

    Geometry (in Angstrom), charge = 0, multiplicity = 1:

       Center              X                  Y                   Z               Mass
    ------------   -----------------  -----------------  -----------------  -----------------
         O           -2.276903894780     0.381012127010    -0.591236067388    15.994914619570
         C            0.055015105220     0.374633127010    -0.067726067388    12.000000000000
         C            1.224930105220    -0.309846872990     0.657590932612    12.000000000000
         C           -1.264485894780    -0.345332872990     0.140991932612    12.000000000000
         C            2.566086105220    -0.104031872990    -0.051821067388    12.000000000000
         H           -0.050454894780     1.412553127010     0.254003932612     1.007825032230
         H            0.248555105220     0.398598127010    -1.143917067388     1.007825032230
         H            1.030930105220    -1.387198872990     0.720198932612     1.007825032230
         H            1.286926105220     0.047538127010     1.689053932612     1.007825032230
         H           -1.182709894780    -1.374478872990    -0.230639067388     1.007825032230
         H           -1.509864894780    -0.385752872990     1.209956932612     1.007825032230
         H            2.530307105220    -0.510379872990    -1.064854067388     1.007825032230
         H            3.381182105220    -0.594420872990     0.483695932612     1.007825032230
         H            2.807371105220     0.958521127010    -0.130984067388     1.007825032230
         H           -3.144143894780    -0.032807872990    -0.488332067388     1.007825032230

  Charge       = 0
  Multiplicity = 1
  Basis Set: 6-311+G*
    Blend: 6-311+G*
  Basis Set: (6-311+G* AUX)
    Blend: HEAVY-AUG-CC-PVTZ-JKFIT

    Orbital Energies [Eh]
    ---------------------

    Doubly Occupied:

       1A    -19.245119     2A    -10.328239     3A    -10.279873
       4A    -10.272983     5A    -10.268943     6A     -1.116872
       7A     -0.896586     8A     -0.821025     9A     -0.724204
      10A     -0.677013    11A     -0.599712    12A     -0.571095
      13A     -0.527370    14A     -0.515124    15A     -0.484629
      16A     -0.457066    17A     -0.435265    18A     -0.420011
      19A     -0.409857    20A     -0.406562    21A     -0.360664

  @DF-RKS Final Energy:  -233.64480945043996

   => Energetics <=

    Nuclear Repulsion Energy =            184.5573710746259053
    One-Electron Energy =                -681.0518791387962665
    Two-Electron Energy =                 286.0965284739807544
    DFT Exchange-Correlation Energy =     -23.2399280605107208
    Empirical Dispersion Energy =          -0.0069017997396696
    VV10 Nonlocal Energy =                  0.0000000000000000
    Total Energy =                       -233.6448094504399933

  Dipole Moment: [D]
     X:    -0.1863      Y:    -1.4732      Z:     1.0262     Total:     1.8050

*** Psi4 exiting successfully. Buy a developer a beer!
