                               Psi4 1.3.2 release

  ==> Input File <==

--------------------------------------------------------------------------
molecule {
0 1
 O   -2.236513    0.274610   -0.329647
 C   -0.042522   -0.677390   -0.563389
 C    1.476500   -0.766049   -0.196650
 C   -0.897187    0.394093    0.156838
 C    2.006954    0.227373    0.860453
 H   -0.140304   -0.509934   -1.644564
 H   -0.510664   -1.654006   -0.379989
 H    2.067588   -0.643257   -1.114234
 H    1.698666   -1.786446    0.143465
 H   -0.865380    0.241549    1.242601
 H   -0.499966    1.396783   -0.043824
 H    1.863463    1.265329    0.542636
 H    3.080113    0.079124    1.022711
 H    1.508038    0.087441    1.825164
 H   -2.783706    0.949690    0.113848
}
set optking {
  frozen_dihedral = ("
    4 2 3 5
    2 4 1 15
    3 2 4 1
    12 5 3 2
  ")
}
set {
  geom_maxiter 400
  g_convergence GAU_LOOSE
  dynamic_level 1
}
memory 700MB
set_num_threads(8)
psi4_io.set_default_path("/home/daniele/PSI4_sctatch/Psi4-1butanol_3D")
for _ in range(1):
  try:
    set opt_coordinates both
    optimize('wb97x-d/6-311G')
    break
  except OptimizationConvergenceError:
    break
  else:
    try:
      set opt_coordinates cartesian
      optimize('wb97x-d/6-311G')
      break
    except OptimizationConvergenceError:
      pass
clean()
--------------------------------------------------------------------------

    Molecular point group: c1
  Charge       = 0
  Multiplicity = 1
  Basis Set: 6-311G
    Blend: 6-311G
  Basis Set: (6-311G AUX)
    Blend: CC-PVTZ-JKFIT
  @DF-RKS Final Energy:  -233.57288352299614
    Total Energy =                       -233.5728835229961646
    Molecular point group: c1
  Basis Set: 6-311G
    Blend: 6-311G
  Basis Set: (6-311G AUX)
    Blend: CC-PVTZ-JKFIT
  Basis Set: 6-311G
    Blend: 6-311G
  Basis Set: (6-311G AUX)
    Blend: CC-PVTZ-JKFIT
  @DF-RKS Final Energy:  -233.57422927063499
    Total Energy =                       -233.5742292706349872
  Basis Set: 6-311G
    Blend: 6-311G
  Basis Set: (6-311G AUX)
    Blend: CC-PVTZ-JKFIT
  Charge       = 0
  Multiplicity = 1
  Basis Set: 6-311G
    Blend: 6-311G
  Basis Set: (6-311G AUX)
    Blend: CC-PVTZ-JKFIT

    Orbital Energies [Eh]
    ---------------------

    Doubly Occupied:

       1A    -19.234181     2A    -10.328741     3A    -10.280888
       4A    -10.273183     5A    -10.272441     6A     -1.118651
       7A     -0.894891     8A     -0.819434     9A     -0.743400
      10A     -0.661404    11A     -0.600810    12A     -0.572176
      13A     -0.520468    14A     -0.513812    15A     -0.487287
      16A     -0.462233    17A     -0.436289    18A     -0.419387
      19A     -0.397946    20A     -0.395645    21A     -0.350753

  @DF-RKS Final Energy:  -233.57445178762580

   => Energetics <=

    Nuclear Repulsion Energy =            187.1934321712473377
    One-Electron Energy =                -686.2507243113753930
    Two-Electron Energy =                 288.7307991130462597
    DFT Exchange-Correlation Energy =     -23.2405957583188645
    Empirical Dispersion Energy =          -0.0073630022251261
    VV10 Nonlocal Energy =                  0.0000000000000000
    Total Energy =                       -233.5744517876258328

  Dipole Moment: [D]
     X:     0.6597      Y:     1.2194      Z:     1.3026     Total:     1.9024

    Molecular point group: c1
  Basis Set: 6-311G
    Blend: 6-311G
  Basis Set: (6-311G AUX)
    Blend: CC-PVTZ-JKFIT

  -Total Gradient:
     Atom            X                  Y                   Z
    ------   -----------------  -----------------  -----------------
       1        0.001038182077     0.000766274842     0.001085927173
       2       -0.000321945394     0.000180648901    -0.000249659277
       3        0.000401327959    -0.000112096574     0.000399241803
       4       -0.001363003030    -0.000934470737    -0.001243286027
       5        0.000852415737    -0.000019431001    -0.000021184320
       6       -0.000369340160     0.000105791178     0.000390275235
       7       -0.000243339761     0.000478541073    -0.000029785585
       8       -0.000106120114    -0.000006351351     0.000344048068
       9        0.000010175088     0.000356487618    -0.000039392289
      10       -0.000046471802    -0.000130073770     0.000007681812
      11        0.000004703045     0.000011411811    -0.000139379120
      12        0.000016181855    -0.000387823746     0.000158360420
      13       -0.000367216989     0.000105638103     0.000014700366
      14        0.000310311171     0.000002787612    -0.000295538256
      15       -0.000385149755    -0.000374394804    -0.000492309117

  **** Optimization is complete! (in 3 steps) ****
    Final optimized geometry and variables:
    Molecular point group: c1

    Geometry (in Angstrom), charge = 0, multiplicity = 1:

    O           -2.219422635364     0.355662901204    -0.314647630919
    C           -0.054502956791    -0.584372868386    -0.565080376669
    C            1.455726318097    -0.677130475879    -0.202784722760
    C           -0.862771086394     0.467468974789     0.176241147066
    C            1.977066876908     0.298812979050     0.862823803546
    H           -0.175305603127    -0.381930357378    -1.630529380745
    H           -0.545038092148    -1.542238967142    -0.384138926138
    H            2.045855734208    -0.531021300744    -1.110300055139
    H            1.677584838944    -1.692634698017     0.132788452820
    H           -0.831649287479     0.289434186556     1.256666200099
    H           -0.467002959414     1.469976139273    -0.019928886022
    H            1.834787711622     1.339542396755     0.567246411170
    H            3.046280190066     0.146915495268     1.017328281685
    H            1.485151247813     0.151814552042     1.825797551698
    H           -2.798671554026     1.002030469335     0.109626420045

*** Psi4 exiting successfully. Buy a developer a beer!
