                               Psi4 1.3.2 release

  ==> Input File <==

--------------------------------------------------------------------------
molecule {
0 1
 O   -2.311349    0.336397   -0.576309
 C    0.034159    0.380841   -0.057915
 C    1.253345   -0.251530    0.669460
 C   -1.303514   -0.360177    0.160422
 C    2.600181   -0.026194   -0.048918
 H   -0.080169    1.429528    0.245223
 H    0.216779    0.395666   -1.140809
 H    1.101938   -1.335500    0.760604
 H    1.309012    0.129072    1.697703
 H   -1.221202   -1.400817   -0.177813
 H   -1.548659   -0.388391    1.229530
 H    2.590402   -0.454132   -1.057264
 H    3.419246   -0.495777    0.505905
 H    2.826396    1.042022   -0.135347
 H   -3.161491   -0.122098   -0.439051
}
set optking {
  frozen_dihedral = ("
    4 2 3 5
    2 4 1 15
    3 2 4 1
    12 5 3 2
  ")
}
set {
  geom_maxiter 400
  g_convergence GAU_LOOSE
  dynamic_level 1
}
memory 700MB
set_num_threads(8)
psi4_io.set_default_path("/home/daniele/PSI4_sctatch/Psi4-1butanol_3D")
for _ in range(1):
  try:
    set opt_coordinates both
    optimize('wb97x-d/6-311G')
    break
  except OptimizationConvergenceError:
    break
  else:
    try:
      set opt_coordinates cartesian
      optimize('wb97x-d/6-311G')
      break
    except OptimizationConvergenceError:
      pass
clean()
--------------------------------------------------------------------------

    Molecular point group: c1
  Charge       = 0
  Multiplicity = 1
  Basis Set: 6-311G
    Blend: 6-311G
  Basis Set: (6-311G AUX)
    Blend: CC-PVTZ-JKFIT
  @DF-RKS Final Energy:  -233.57881122131963
    Total Energy =                       -233.5788112213195973
    Molecular point group: c1
  Basis Set: 6-311G
    Blend: 6-311G
  Basis Set: (6-311G AUX)
    Blend: CC-PVTZ-JKFIT
  Basis Set: 6-311G
    Blend: 6-311G
  Basis Set: (6-311G AUX)
    Blend: CC-PVTZ-JKFIT
  @DF-RKS Final Energy:  -233.58032055146401
    Total Energy =                       -233.5803205514640410
  Basis Set: 6-311G
    Blend: 6-311G
  Basis Set: (6-311G AUX)
    Blend: CC-PVTZ-JKFIT
  Charge       = 0
  Multiplicity = 1
  Basis Set: 6-311G
    Blend: 6-311G
  Basis Set: (6-311G AUX)
    Blend: CC-PVTZ-JKFIT

    Orbital Energies [Eh]
    ---------------------

    Doubly Occupied:

       1A    -19.234970     2A    -10.329893     3A    -10.280888
       4A    -10.273709     5A    -10.269247     6A     -1.119606
       7A     -0.898622     8A     -0.823209     9A     -0.726130
      10A     -0.678690    11A     -0.596163    12A     -0.572001
      13A     -0.527677    14A     -0.515205    15A     -0.482890
      16A     -0.455808    17A     -0.429703    18A     -0.418756
      19A     -0.407488    20A     -0.400051    21A     -0.351983

  @DF-RKS Final Energy:  -233.58041547730647

   => Energetics <=

    Nuclear Repulsion Energy =            184.5573627186377337
    One-Electron Energy =                -680.9742427046094235
    Two-Electron Energy =                 286.0836831623770991
    DFT Exchange-Correlation Energy =     -23.2403168537616267
    Empirical Dispersion Energy =          -0.0069017999502263
    VV10 Nonlocal Energy =                  0.0000000000000000
    Total Energy =                       -233.5804154773064454

  Dipole Moment: [D]
     X:    -0.2971      Y:    -1.5636      Z:     1.0456     Total:     1.9043

    Molecular point group: c1
  Basis Set: 6-311G
    Blend: 6-311G
  Basis Set: (6-311G AUX)
    Blend: CC-PVTZ-JKFIT

  -Total Gradient:
     Atom            X                  Y                   Z
    ------   -----------------  -----------------  -----------------
       1        0.000698108331    -0.001039122697     0.000451079297
       2       -0.000166034664     0.001176860832     0.002505337639
       3        0.000410813288     0.002682531352     0.000806298740
       4       -0.000265712590    -0.000551003849    -0.002265239228
       5       -0.000132388294    -0.002427076213    -0.001419410296
       6       -0.000034151477    -0.000048985790    -0.000020763305
       7       -0.000034683344     0.000025638098     0.000051807122
       8        0.000078202597     0.000000054770    -0.000046943811
       9        0.000056136688    -0.000054713780    -0.000111173616
      10       -0.000065667306    -0.000139654536    -0.000116842492
      11       -0.000145320459    -0.000070650527     0.000143945475
      12       -0.000187719351     0.000413830184     0.000034642435
      13        0.000076398649    -0.000059727456     0.000044012848
      14       -0.000079806239    -0.000202291410     0.000037212609
      15       -0.000076444405     0.000199865959    -0.000173723815

  **** Optimization is complete! (in 3 steps) ****
    Final optimized geometry and variables:
    Molecular point group: c1

    Geometry (in Angstrom), charge = 0, multiplicity = 1:

    O           -2.276903925364     0.381012174597    -0.591235884576
    C            0.055014858774     0.374633450215    -0.067726278425
    C            1.224929859663    -0.309846921958     0.657590965851
    C           -1.264485679764    -0.345332852754     0.140991930076
    C            2.566086421302    -0.104031985444    -0.051821270643
    H           -0.050455423458     1.412552932761     0.254004418245
    H            0.248555122686     0.398597668015    -1.143917003956
    H            1.030930295028    -1.387199415030     0.720199365425
    H            1.286925841694     0.047537583411     1.689053640803
    H           -1.182709601831    -1.374479169115    -0.230638820627
    H           -1.509864747547    -0.385753077963     1.209957378872
    H            2.530307321452    -0.510379664786    -1.064854206627
    H            3.381182278159    -0.594420805924     0.483696383711
    H            2.807371117531     0.958520521093    -0.130983690852
    H           -3.144144131651    -0.032808224880    -0.488332472882

*** Psi4 exiting successfully. Buy a developer a beer!
