                               Psi4 1.3.2 release

  ==> Input File <==

--------------------------------------------------------------------------
molecule {
0 1
 O   -2.315736    0.378481   -0.533314
 C    0.055660    0.028259   -0.379742
 C    1.271565   -0.558780    0.389690
 C   -1.311998   -0.208822    0.297809
 C    2.584836    0.222556    0.178054
 H    0.174203    1.114986   -0.484885
 H    0.028705   -0.375100   -1.400399
 H    1.412172   -1.611091    0.110342
 H    1.056096   -0.563043    1.466619
 H   -1.488756   -1.284314    0.424626
 H   -1.322100    0.239616    1.299343
 H    2.867857    0.238058   -0.879943
 H    3.405757   -0.239218    0.736848
 H    2.490209    1.258863    0.520108
 H   -3.183395    0.238459   -0.109735
}
set optking {
  frozen_dihedral = ("
    4 2 3 5
    2 4 1 15
    3 2 4 1
    12 5 3 2
  ")
}
set {
  geom_maxiter 400
  g_convergence GAU_LOOSE
  dynamic_level 1
}
memory 700MB
set_num_threads(8)
psi4_io.set_default_path("/home/daniele/PSI4_sctatch/Psi4-1butanol_3D")
for _ in range(1):
  try:
    set opt_coordinates both
    optimize('wb97x-d/6-311G')
    break
  except OptimizationConvergenceError:
    break
  else:
    try:
      set opt_coordinates cartesian
      optimize('wb97x-d/6-311G')
      break
    except OptimizationConvergenceError:
      pass
clean()
--------------------------------------------------------------------------

    Molecular point group: c1
  Charge       = 0
  Multiplicity = 1
  Basis Set: 6-311G
    Blend: 6-311G
  Basis Set: (6-311G AUX)
    Blend: CC-PVTZ-JKFIT
  @DF-RKS Final Energy:  -233.57884352836467
    Total Energy =                       -233.5788435283646720
    Molecular point group: c1
  Basis Set: 6-311G
    Blend: 6-311G
  Basis Set: (6-311G AUX)
    Blend: CC-PVTZ-JKFIT
  Basis Set: 6-311G
    Blend: 6-311G
  Basis Set: (6-311G AUX)
    Blend: CC-PVTZ-JKFIT
  @DF-RKS Final Energy:  -233.58033048708134
    Total Energy =                       -233.5803304870813406
  Basis Set: 6-311G
    Blend: 6-311G
  Basis Set: (6-311G AUX)
    Blend: CC-PVTZ-JKFIT
  Charge       = 0
  Multiplicity = 1
  Basis Set: 6-311G
    Blend: 6-311G
  Basis Set: (6-311G AUX)
    Blend: CC-PVTZ-JKFIT

    Orbital Energies [Eh]
    ---------------------

    Doubly Occupied:

       1A    -19.234959     2A    -10.329874     3A    -10.280901
       4A    -10.273662     5A    -10.269262     6A     -1.119598
       7A     -0.898623     8A     -0.823219     9A     -0.726136
      10A     -0.678650    11A     -0.596290    12A     -0.571741
      13A     -0.527866    14A     -0.515215    15A     -0.482802
      16A     -0.455928    17A     -0.429724    18A     -0.418595
      19A     -0.407553    20A     -0.400054    21A     -0.351960

  @DF-RKS Final Energy:  -233.58042426520123

   => Energetics <=

    Nuclear Repulsion Energy =            184.5527575728022498
    One-Electron Energy =                -680.9651710707548773
    Two-Electron Energy =                 286.0792439081442353
    DFT Exchange-Correlation Energy =     -23.2403524358474840
    Empirical Dispersion Energy =          -0.0069022395453177
    VV10 Nonlocal Energy =                  0.0000000000000000
    Total Energy =                       -233.5804242652012022

  Dipole Moment: [D]
     X:    -0.3270      Y:    -0.8847      Z:     1.6562     Total:     1.9059

    Molecular point group: c1
  Basis Set: 6-311G
    Blend: 6-311G
  Basis Set: (6-311G AUX)
    Blend: CC-PVTZ-JKFIT

  -Total Gradient:
     Atom            X                  Y                   Z
    ------   -----------------  -----------------  -----------------
       1        0.000659066506    -0.000439552679     0.001025674107
       2        0.000072047633    -0.002469061597    -0.000858848681
       3        0.000716159457    -0.001294148864    -0.002551805879
       4       -0.000445627950     0.002356976329     0.000376089349
       5       -0.000735836602     0.002153819911     0.001782606370
       6       -0.000030037649    -0.000046039339    -0.000016410801
       7       -0.000026849031     0.000023652628     0.000042697532
       8        0.000034236008     0.000122892604     0.000049725786
       9        0.000064013086     0.000038251960     0.000010899516
      10       -0.000141315042    -0.000134460206     0.000068006940
      11       -0.000073231742     0.000113120294     0.000128473277
      12        0.000138267399    -0.000376189028     0.000247843413
      13        0.000019998768    -0.000005250314     0.000038073871
      14       -0.000057930218    -0.000142852552    -0.000054730057
      15       -0.000075377296     0.000182044031    -0.000192341248

  **** Optimization is complete! (in 3 steps) ****
    Final optimized geometry and variables:
    Molecular point group: c1

    Geometry (in Angstrom), charge = 0, multiplicity = 1:

    O           -2.280688295575     0.392106069731    -0.573561421371
    C            0.075201198367     0.041879060415    -0.373953781684
    C            1.239649691168    -0.542599861267     0.441954197203
    C           -1.272685663693    -0.188229079934     0.284197746073
    C            2.546883519143     0.231366364259     0.250977559688
    H            0.205926706192     1.121812155115    -0.487144761480
    H            0.055313093785    -0.377915226937    -1.381579233441
    H            1.385381985430    -1.595412578379     0.185560483188
    H            0.980645637442    -0.522014835036     1.507248262207
    H           -1.449193436929    -1.262827788188     0.420722505796
    H           -1.283983747501     0.288728179163     1.272291871954
    H            2.856364980678     0.225432195760    -0.796651948172
    H            3.356497367298    -0.203526452468     0.840242537847
    H            2.425650530119     1.272322324136     0.557952444158
    H           -3.163784672130     0.278762695737    -0.197716161386

*** Psi4 exiting successfully. Buy a developer a beer!
