                               Psi4 1.3.2 release

  ==> Input File <==

--------------------------------------------------------------------------
molecule {
0 1
 O   -2.218926    0.329716   -0.380505
 C   -0.014773   -0.597621   -0.620561
 C    1.443264   -0.817958   -0.112981
 C   -0.943159    0.271338    0.261980
 C    2.059664    0.323048    0.724585
 H    0.029377   -0.115315   -1.606586
 H   -0.495486   -1.570060   -0.790434
 H    2.095338   -1.040247   -0.967974
 H    1.458939   -1.727247    0.503179
 H   -1.029760   -0.167878    1.263698
 H   -0.527842    1.279318    0.383437
 H    2.094751    1.256525    0.152766
 H    3.087203    0.074960    1.011872
 H    1.496851    0.499669    1.647065
 H   -2.810363    0.880662    0.165881
}
set optking {
  frozen_dihedral = ("
    4 2 3 5
    2 4 1 15
    3 2 4 1
    12 5 3 2
  ")
}
set {
  geom_maxiter 400
  g_convergence GAU_LOOSE
  dynamic_level 1
}
memory 700MB
set_num_threads(8)
psi4_io.set_default_path("/home/daniele/PSI4_sctatch/Psi4-1butanol_3D")
for _ in range(1):
  try:
    set opt_coordinates both
    optimize('wb97x-d/6-311G')
    break
  except OptimizationConvergenceError:
    break
  else:
    try:
      set opt_coordinates cartesian
      optimize('wb97x-d/6-311G')
      break
    except OptimizationConvergenceError:
      pass
clean()
--------------------------------------------------------------------------

    Molecular point group: c1
  Charge       = 0
  Multiplicity = 1
  Basis Set: 6-311G
    Blend: 6-311G
  Basis Set: (6-311G AUX)
    Blend: CC-PVTZ-JKFIT
  @DF-RKS Final Energy:  -233.57662726183833
    Total Energy =                       -233.5766272618383539
    Molecular point group: c1
  Basis Set: 6-311G
    Blend: 6-311G
  Basis Set: (6-311G AUX)
    Blend: CC-PVTZ-JKFIT
  Basis Set: 6-311G
    Blend: 6-311G
  Basis Set: (6-311G AUX)
    Blend: CC-PVTZ-JKFIT
  @DF-RKS Final Energy:  -233.57819192075584
    Total Energy =                       -233.5781919207558417
  Basis Set: 6-311G
    Blend: 6-311G
  Basis Set: (6-311G AUX)
    Blend: CC-PVTZ-JKFIT
  Charge       = 0
  Multiplicity = 1
  Basis Set: 6-311G
    Blend: 6-311G
  Basis Set: (6-311G AUX)
    Blend: CC-PVTZ-JKFIT

    Orbital Energies [Eh]
    ---------------------

    Doubly Occupied:

       1A    -19.234466     2A    -10.328797     3A    -10.280933
       4A    -10.273434     5A    -10.272317     6A     -1.118854
       7A     -0.897386     8A     -0.818880     9A     -0.742991
      10A     -0.662497    11A     -0.600993    12A     -0.570192
      13A     -0.528839    14A     -0.509460    15A     -0.487160
      16A     -0.460668    17A     -0.436206    18A     -0.419848
      19A     -0.402344    20A     -0.394278    21A     -0.351347

  @DF-RKS Final Energy:  -233.57841777711602

   => Energetics <=

    Nuclear Repulsion Energy =            187.5110051809452898
    One-Electron Energy =                -686.8778794971623256
    Two-Electron Energy =                 289.0366657775157364
    DFT Exchange-Correlation Energy =     -23.2407718174259692
    Empirical Dispersion Energy =          -0.0074374209887237
    VV10 Nonlocal Energy =                  0.0000000000000000
    Total Energy =                       -233.5784177771160159

  Dipole Moment: [D]
     X:     0.5335      Y:     0.8971      Z:     1.5919     Total:     1.9036

    Molecular point group: c1
  Basis Set: 6-311G
    Blend: 6-311G
  Basis Set: (6-311G AUX)
    Blend: CC-PVTZ-JKFIT

  -Total Gradient:
     Atom            X                  Y                   Z
    ------   -----------------  -----------------  -----------------
       1        0.001213125255     0.000875522306     0.000817310330
       2       -0.002582138592    -0.005728344247     0.004947562169
       3        0.003232381509     0.003855385257    -0.006361984125
       4       -0.000247302559     0.002274729712    -0.003318201654
       5       -0.001707892963    -0.001243409066     0.003982738079
       6       -0.000189986776     0.000077135648     0.000128547024
       7       -0.000105880982     0.000316226390     0.000018621988
       8       -0.000196527564     0.000057316824     0.000200376126
       9        0.000088495820     0.000139668968    -0.000031796894
      10        0.000142328256    -0.000219695743     0.000367351478
      11        0.000011509663     0.000174543772    -0.000215899274
      12        0.000623877897    -0.000325151010    -0.000238064451
      13       -0.000051189700     0.000095704216    -0.000004414621
      14        0.000258928460    -0.000137942247    -0.000085770612
      15       -0.000416096358    -0.000227175296    -0.000395121672

  **** Optimization is complete! (in 3 steps) ****
    Final optimized geometry and variables:
    Molecular point group: c1

    Geometry (in Angstrom), charge = 0, multiplicity = 1:

    O           -2.195158197814     0.414771142145    -0.374668372148
    C           -0.032959871584    -0.551601556106    -0.584788943069
    C            1.405849824229    -0.766583372231    -0.065335849307
    C           -0.901235878799     0.354421905359     0.269568249754
    C            2.016570960207     0.401564846484     0.720002954846
    H           -0.004581368420    -0.102915135787    -1.581804911195
    H           -0.541270111482    -1.510707575831    -0.694003783326
    H            2.050683204724    -1.013895463894    -0.911100958111
    H            1.417011067522    -1.645541577618     0.587600529064
    H           -0.993568587270    -0.047172009960     1.287694047472
    H           -0.461674329885     1.355131035595     0.332502022093
    H            2.065597347685     1.311046818510     0.115936412879
    H            3.035254644092     0.158434814098     1.027566260145
    H            1.447145442734     0.623092263375     1.624064808659
    H           -2.802712931090     0.983805187439     0.116074250506

*** Psi4 exiting successfully. Buy a developer a beer!
