                               Psi4 1.3.2 release

  ==> Input File <==

--------------------------------------------------------------------------
molecule {
0 1
 O   -1.962509   -0.730662    1.251968
 C   -0.182482    0.241071   -0.135855
 C    1.293546    0.174341   -0.536878
 C   -0.561161   -0.810281    0.897785
 C    1.671969    1.235274   -1.572638
 H   -0.422804    1.229204    0.267171
 H   -0.808266    0.105048   -1.025931
 H    1.519989   -0.821888   -0.934727
 H    1.917465    0.296886    0.355407
 H   -0.305626   -1.812498    0.532383
 H   -0.009886   -0.643587    1.823678
 H    1.083903    1.116422   -2.486336
 H    2.727301    1.170041   -1.841582
 H    1.484600    2.240906   -1.187095
 H   -2.495674   -1.290962    0.672877
}
memory 700MB
set_num_threads(8)
psi4_io.set_default_path("/home/daniele/PSI4_sctatch/Psi4-1butanol_3D")
set freeze_core True
E, wfn = energy('wb97x-d/6-311+G*',return_wfn=True)
oeprop(wfn,"WIBERG_LOWDIN_INDICES")
clean()
--------------------------------------------------------------------------

    Molecular point group: c1

    Geometry (in Angstrom), charge = 0, multiplicity = 1:

       Center              X                  Y                   Z               Mass
    ------------   -----------------  -----------------  -----------------  -----------------
         O           -1.962509126182    -0.730661920975     1.251967863239    15.994914619570
         C           -0.182482126182     0.241071079025    -0.135855136761    12.000000000000
         C            1.293545873818     0.174341079025    -0.536878136761    12.000000000000
         C           -0.561161126182    -0.810280920975     0.897784863239    12.000000000000
         C            1.671968873818     1.235274079025    -1.572638136761    12.000000000000
         H           -0.422804126182     1.229204079025     0.267170863239     1.007825032230
         H           -0.808266126182     0.105048079025    -1.025931136761     1.007825032230
         H            1.519988873818    -0.821887920975    -0.934727136761     1.007825032230
         H            1.917464873818     0.296886079025     0.355406863239     1.007825032230
         H           -0.305626126182    -1.812497920975     0.532382863239     1.007825032230
         H           -0.009886126182    -0.643586920975     1.823677863239     1.007825032230
         H            1.083902873818     1.116422079025    -2.486336136761     1.007825032230
         H            2.727300873818     1.170041079025    -1.841582136761     1.007825032230
         H            1.484599873818     2.240906079025    -1.187095136761     1.007825032230
         H           -2.495674126182    -1.290961920975     0.672876863239     1.007825032230

  Charge       = 0
  Multiplicity = 1
  Basis Set: 6-311+G*
    Blend: 6-311+G*
  Basis Set: (6-311+G* AUX)
    Blend: HEAVY-AUG-CC-PVTZ-JKFIT

    Orbital Energies [Eh]
    ---------------------

    Doubly Occupied:

       1A    -19.244288     2A    -10.328262     3A    -10.282249
       4A    -10.276055     5A    -10.271310     6A     -1.115985
       7A     -0.899060     8A     -0.821352     9A     -0.729346
      10A     -0.680835    11A     -0.603067    12A     -0.562855
      13A     -0.529246    14A     -0.518851    15A     -0.479707
      16A     -0.463956    17A     -0.443152    18A     -0.424370
      19A     -0.416520    20A     -0.406211    21A     -0.356496

  @DF-RKS Final Energy:  -233.64597618972033

   => Energetics <=

    Nuclear Repulsion Energy =            184.0901003531585047
    One-Electron Energy =                -680.0497363446784220
    Two-Electron Energy =                 285.5601599640165205
    DFT Exchange-Correlation Energy =     -23.2394795566028378
    Empirical Dispersion Energy =          -0.0070206056141056
    VV10 Nonlocal Energy =                  0.0000000000000000
    Total Energy =                       -233.6459761897203578

  Dipole Moment: [D]
     X:     0.8357      Y:    -0.9652      Z:    -1.5264     Total:     1.9899

*** Psi4 exiting successfully. Buy a developer a beer!
