                               Psi4 1.3.2 release

  ==> Input File <==

--------------------------------------------------------------------------
molecule {
0 1
 O   -2.286118    0.403698   -0.503376
 C    0.051268   -0.152618   -0.505822
 C    1.303991   -0.685518    0.252785
 C   -1.241987   -0.093403    0.337115
 C    2.475661    0.315481    0.323528
 H    0.241630    0.850726   -0.908527
 H   -0.142587   -0.789004   -1.379645
 H    1.654579   -1.605024   -0.234326
 H    1.033204   -0.987282    1.272883
 H   -1.489922   -1.091684    0.719805
 H   -1.096171    0.558481    1.207546
 H    2.820965    0.591572   -0.678634
 H    3.325315   -0.118074    0.862020
 H    2.181341    1.231746    0.846738
 H   -3.106095    0.449813    0.023331
}
set optking {
  frozen_dihedral = ("
    4 2 3 5
    2 4 1 15
    3 2 4 1
    12 5 3 2
  ")
}
set {
  geom_maxiter 400
  g_convergence GAU_LOOSE
  dynamic_level 1
}
memory 700MB
set_num_threads(8)
psi4_io.set_default_path("/home/daniele/PSI4_sctatch/Psi4-1butanol_3D")
for _ in range(1):
  try:
    set opt_coordinates both
    optimize('wb97x-d/6-311G')
    break
  except OptimizationConvergenceError:
    break
  else:
    try:
      set opt_coordinates cartesian
      optimize('wb97x-d/6-311G')
      break
    except OptimizationConvergenceError:
      pass
clean()
--------------------------------------------------------------------------

    Molecular point group: c1
  Charge       = 0
  Multiplicity = 1
  Basis Set: 6-311G
    Blend: 6-311G
  Basis Set: (6-311G AUX)
    Blend: CC-PVTZ-JKFIT
  @DF-RKS Final Energy:  -233.57639787368052
    Total Energy =                       -233.5763978736805768
    Molecular point group: c1
  Basis Set: 6-311G
    Blend: 6-311G
  Basis Set: (6-311G AUX)
    Blend: CC-PVTZ-JKFIT
  Basis Set: 6-311G
    Blend: 6-311G
  Basis Set: (6-311G AUX)
    Blend: CC-PVTZ-JKFIT
  @DF-RKS Final Energy:  -233.57797592885973
    Total Energy =                       -233.5779759288597006
  Basis Set: 6-311G
    Blend: 6-311G
  Basis Set: (6-311G AUX)
    Blend: CC-PVTZ-JKFIT
  Charge       = 0
  Multiplicity = 1
  Basis Set: 6-311G
    Blend: 6-311G
  Basis Set: (6-311G AUX)
    Blend: CC-PVTZ-JKFIT

    Orbital Energies [Eh]
    ---------------------

    Doubly Occupied:

       1A    -19.234880     2A    -10.329970     3A    -10.280839
       4A    -10.273442     5A    -10.269378     6A     -1.119742
       7A     -0.897628     8A     -0.822495     9A     -0.727753
      10A     -0.677813    11A     -0.597827    12A     -0.565573
      13A     -0.536208    14A     -0.510489    15A     -0.478023
      16A     -0.464532    17A     -0.424084    18A     -0.419289
      19A     -0.407812    20A     -0.399217    21A     -0.351927

  @DF-RKS Final Energy:  -233.57806753195709

   => Energetics <=

    Nuclear Repulsion Energy =            185.0544278038992729
    One-Electron Energy =                -681.9714942904718100
    Two-Electron Energy =                 286.5857497231977504
    DFT Exchange-Correlation Energy =     -23.2398099875418893
    Empirical Dispersion Energy =          -0.0069407810403913
    VV10 Nonlocal Energy =                  0.0000000000000000
    Total Energy =                       -233.5780675319570605

  Dipole Moment: [D]
     X:    -0.1889      Y:    -0.5239      Z:     1.8105     Total:     1.8942

    Molecular point group: c1
  Basis Set: 6-311G
    Blend: 6-311G
  Basis Set: (6-311G AUX)
    Blend: CC-PVTZ-JKFIT

  -Total Gradient:
     Atom            X                  Y                   Z
    ------   -----------------  -----------------  -----------------
       1        0.000553443471    -0.000758883874     0.000890244637
       2        0.000721534114     0.000079991382    -0.000018428837
       3       -0.000443968990    -0.000065076674    -0.000314717793
       4       -0.000357820504     0.000583731346    -0.000455595424
       5        0.000064320147     0.000073660323    -0.000012547914
       6       -0.000007058640    -0.000057089994     0.000054769658
       7       -0.000046140649     0.000053380853    -0.000035773435
       8        0.000034155768     0.000089809520    -0.000000576299
       9        0.000004132770     0.000062420352    -0.000041562965
      10       -0.000181326167    -0.000074064404     0.000057335193
      11       -0.000191852600     0.000091827494     0.000109787428
      12       -0.000182152427    -0.000017683586     0.000157793133
      13       -0.000002409897    -0.000050991918     0.000017570713
      14        0.000059558183    -0.000144695313    -0.000076332069
      15        0.000084841374     0.000048628822    -0.000254658751

  **** Optimization is complete! (in 3 steps) ****
    Final optimized geometry and variables:
    Molecular point group: c1

    Geometry (in Angstrom), charge = 0, multiplicity = 1:

    O           -2.257701301807     0.444732175160    -0.504453236824
    C            0.063128366928    -0.125821251692    -0.500791027581
    C            1.271763785836    -0.672059448907     0.291070315751
    C           -1.201553333426    -0.068726933722     0.337190227392
    C            2.430561566321     0.325868187642     0.378473699065
    H            0.271348029067     0.882872119568    -0.865850020350
    H           -0.142169498035    -0.737282342406    -1.381169419491
    H            1.627947612388    -1.599464657612    -0.163397690626
    H            0.959875116394    -0.939393953077     1.307155600252
    H           -1.451798238884    -1.072188533854     0.703792352510
    H           -1.042609581964     0.583244987836     1.205702798144
    H            2.791942646975     0.586884838927    -0.618448050003
    H            3.269256565904    -0.082132267168     0.946001284087
    H            2.109914992381     1.249499999393     0.866325642159
    H           -3.090272266016     0.508229408622    -0.018252736152

*** Psi4 exiting successfully. Buy a developer a beer!
