                               Psi4 1.3.2 release

  ==> Input File <==

--------------------------------------------------------------------------
molecule {
0 1
 O   -2.006030    0.629296    0.359716
 C    0.041646   -0.094144   -0.647430
 C    1.099407   -0.261460    0.447029
 C   -1.352988   -0.527327   -0.218174
 C    2.492653    0.183214   -0.002656
 H   -0.019364    0.947597   -0.969171
 H    0.345656   -0.682087   -1.520503
 H    1.133982   -1.313269    0.750684
 H    0.790656    0.309843    1.326786
 H   -1.925036   -0.878105   -1.085339
 H   -1.291144   -1.346606    0.508442
 H    2.828944   -0.397610   -0.865244
 H    3.227296    0.055916    0.794600
 H    2.489147    1.236722   -0.291031
 H   -2.899117    0.411638    0.657353
}
memory 700MB
set_num_threads(8)
psi4_io.set_default_path("/home/daniele/PSI4_sctatch/Psi4-1butanol_3D")
set freeze_core True
E, wfn = energy('wb97x-d/6-311+G*',return_wfn=True)
oeprop(wfn,"WIBERG_LOWDIN_INDICES")
clean()
--------------------------------------------------------------------------

    Molecular point group: c1

    Geometry (in Angstrom), charge = 0, multiplicity = 1:

       Center              X                  Y                   Z               Mass
    ------------   -----------------  -----------------  -----------------  -----------------
         O           -2.006029818532     0.629295826628     0.359715923724    15.994914619570
         C            0.041646181468    -0.094144173372    -0.647430076276    12.000000000000
         C            1.099407181468    -0.261460173372     0.447028923724    12.000000000000
         C           -1.352987818532    -0.527327173372    -0.218174076276    12.000000000000
         C            2.492653181468     0.183213826628    -0.002656076276    12.000000000000
         H           -0.019363818532     0.947596826628    -0.969171076276     1.007825032230
         H            0.345656181468    -0.682087173372    -1.520503076276     1.007825032230
         H            1.133982181468    -1.313269173372     0.750683923724     1.007825032230
         H            0.790656181468     0.309842826628     1.326785923724     1.007825032230
         H           -1.925035818532    -0.878105173372    -1.085339076276     1.007825032230
         H           -1.291143818532    -1.346606173372     0.508441923724     1.007825032230
         H            2.828944181468    -0.397610173372    -0.865244076276     1.007825032230
         H            3.227296181468     0.055915826628     0.794599923724     1.007825032230
         H            2.489147181468     1.236721826628    -0.291031076276     1.007825032230
         H           -2.899116818532     0.411637826628     0.657352923724     1.007825032230

  Charge       = 0
  Multiplicity = 1
  Basis Set: 6-311+G*
    Blend: 6-311+G*
  Basis Set: (6-311+G* AUX)
    Blend: HEAVY-AUG-CC-PVTZ-JKFIT

    Orbital Energies [Eh]
    ---------------------

    Doubly Occupied:

       1A    -19.244831     2A    -10.328264     3A    -10.273656
       4A    -10.272977     5A    -10.265332     6A     -1.116220
       7A     -0.893590     8A     -0.819700     9A     -0.723961
      10A     -0.672169    11A     -0.610980    12A     -0.543356
      13A     -0.538799    14A     -0.516926    15A     -0.471657
      16A     -0.461016    17A     -0.441864    18A     -0.415486
      19A     -0.409632    20A     -0.403874    21A     -0.357978

  @DF-RKS Final Energy:  -233.64482614525753

   => Energetics <=

    Nuclear Repulsion Energy =            186.2293992903324806
    One-Electron Energy =                -684.4679370299750190
    Two-Electron Energy =                 287.8406798009962131
    DFT Exchange-Correlation Energy =     -23.2400132091327620
    Empirical Dispersion Energy =          -0.0069549974784363
    VV10 Nonlocal Energy =                  0.0000000000000000
    Total Energy =                       -233.6448261452575252

  Dipole Moment: [D]
     X:    -0.7090      Y:    -1.6045      Z:    -0.1257     Total:     1.7587

*** Psi4 exiting successfully. Buy a developer a beer!
