                               Psi4 1.3.2 release

  ==> Input File <==

--------------------------------------------------------------------------
molecule {
0 1
 O   -2.299406    0.356774   -0.548740
 C    0.063947    0.213505   -0.227895
 C    1.235820   -0.413146    0.532501
 C   -1.283855   -0.296602    0.245933
 C    2.591885    0.109460    0.052031
 H    0.082187    1.300491   -0.114254
 H    0.156379    0.003668   -1.296644
 H    1.204067   -1.501918    0.418726
 H    1.126266   -0.210158    1.603159
 H   -1.335628   -1.385529    0.120933
 H   -1.417205   -0.066716    1.310536
 H    2.738233   -0.108728   -1.008134
 H    3.413771   -0.347050    0.606509
 H    2.658308    1.192004    0.181123
 H   -3.183738    0.067028   -0.287759
}
memory 700MB
set_num_threads(8)
psi4_io.set_default_path("/home/daniele/PSI4_sctatch/Psi4-1butanol_3D")
set freeze_core True
E, wfn = energy('wb97x-d/6-311+G*',return_wfn=True)
oeprop(wfn,"WIBERG_LOWDIN_INDICES")
clean()
--------------------------------------------------------------------------

    Molecular point group: c1

    Geometry (in Angstrom), charge = 0, multiplicity = 1:

       Center              X                  Y                   Z               Mass
    ------------   -----------------  -----------------  -----------------  -----------------
         O           -2.299405867532     0.356774063055    -0.548739874138    15.994914619570
         C            0.063947132468     0.213505063055    -0.227894874138    12.000000000000
         C            1.235820132468    -0.413145936945     0.532501125862    12.000000000000
         C           -1.283854867532    -0.296601936945     0.245933125862    12.000000000000
         C            2.591885132468     0.109460063055     0.052031125862    12.000000000000
         H            0.082187132468     1.300491063055    -0.114253874138     1.007825032230
         H            0.156379132468     0.003668063055    -1.296643874138     1.007825032230
         H            1.204067132468    -1.501917936945     0.418726125862     1.007825032230
         H            1.126266132468    -0.210157936945     1.603159125862     1.007825032230
         H           -1.335627867532    -1.385528936945     0.120933125862     1.007825032230
         H           -1.417204867532    -0.066715936945     1.310536125862     1.007825032230
         H            2.738233132468    -0.108727936945    -1.008133874138     1.007825032230
         H            3.413771132468    -0.347049936945     0.606509125862     1.007825032230
         H            2.658308132468     1.192004063055     0.181123125862     1.007825032230
         H           -3.183737867532     0.067028063055    -0.287758874138     1.007825032230

  Charge       = 0
  Multiplicity = 1
  Basis Set: 6-311+G*
    Blend: 6-311+G*
  Basis Set: (6-311+G* AUX)
    Blend: HEAVY-AUG-CC-PVTZ-JKFIT

    Orbital Energies [Eh]
    ---------------------

    Doubly Occupied:

       1A    -19.244968     2A    -10.327976     3A    -10.279847
       4A    -10.273096     5A    -10.268864     6A     -1.116628
       7A     -0.897598     8A     -0.821154     9A     -0.723984
      10A     -0.676805    11A     -0.598802    12A     -0.574032
      13A     -0.522395    14A     -0.519152    15A     -0.485817
      16A     -0.451406    17A     -0.440626    18A     -0.419654
      19A     -0.410640    20A     -0.407058    21A     -0.360530

  @DF-RKS Final Energy:  -233.64693513162456

   => Energetics <=

    Nuclear Repulsion Energy =            184.5097976925329135
    One-Electron Energy =                -680.9544062930605151
    Two-Electron Energy =                 286.0457254726030101
    DFT Exchange-Correlation Energy =     -23.2410982039187886
    Empirical Dispersion Energy =          -0.0069537997811906
    VV10 Nonlocal Energy =                  0.0000000000000000
    Total Energy =                       -233.6469351316245877

  Dipole Moment: [D]
     X:    -0.2039      Y:    -1.2150      Z:     1.3328     Total:     1.8150

*** Psi4 exiting successfully. Buy a developer a beer!
