                               Psi4 1.3.2 release

  ==> Input File <==

--------------------------------------------------------------------------
molecule {
0 1
 O   -2.135312   -0.195785   -0.766830
 C    0.037154    0.514761   -0.010541
 C    1.178800   -0.402368    0.439500
 C   -1.344441    0.024025    0.427042
 C    2.553469    0.103813   -0.001658
 H    0.222821    1.527444    0.358739
 H    0.021499    0.574030   -1.100887
 H    1.006762   -1.405393    0.036673
 H    1.160654   -0.498371    1.530666
 H   -1.248595   -0.914090    0.987733
 H   -1.836356    0.757173    1.075878
 H    2.608537    0.176995   -1.090105
 H    3.349655   -0.564344    0.331292
 H    2.753694    1.096327    0.409043
 H   -3.023573   -0.502902   -0.541396
}
memory 700MB
set_num_threads(8)
psi4_io.set_default_path("/home/daniele/PSI4_sctatch/Psi4-1butanol_3D")
set freeze_core True
E, wfn = energy('wb97x-d/6-311+G*',return_wfn=True)
oeprop(wfn,"WIBERG_LOWDIN_INDICES")
clean()
--------------------------------------------------------------------------

    Molecular point group: c1

    Geometry (in Angstrom), charge = 0, multiplicity = 1:

       Center              X                  Y                   Z               Mass
    ------------   -----------------  -----------------  -----------------  -----------------
         O           -2.135311894393    -0.195785113389    -0.766830043043    15.994914619570
         C            0.037154105607     0.514760886611    -0.010541043043    12.000000000000
         C            1.178800105607    -0.402368113389     0.439499956957    12.000000000000
         C           -1.344440894393     0.024024886611     0.427041956957    12.000000000000
         C            2.553469105607     0.103812886611    -0.001658043043    12.000000000000
         H            0.222821105607     1.527443886611     0.358738956957     1.007825032230
         H            0.021499105607     0.574029886611    -1.100887043043     1.007825032230
         H            1.006762105607    -1.405393113389     0.036672956957     1.007825032230
         H            1.160654105607    -0.498371113389     1.530665956957     1.007825032230
         H           -1.248594894393    -0.914090113389     0.987732956957     1.007825032230
         H           -1.836355894393     0.757172886611     1.075877956957     1.007825032230
         H            2.608537105607     0.176994886611    -1.090105043043     1.007825032230
         H            3.349655105607    -0.564344113389     0.331291956957     1.007825032230
         H            2.753694105607     1.096326886611     0.409042956957     1.007825032230
         H           -3.023572894393    -0.502902113389    -0.541396043043     1.007825032230

  Charge       = 0
  Multiplicity = 1
  Basis Set: 6-311+G*
    Blend: 6-311+G*
  Basis Set: (6-311+G* AUX)
    Blend: HEAVY-AUG-CC-PVTZ-JKFIT

    Orbital Energies [Eh]
    ---------------------

    Doubly Occupied:

       1A    -19.244952     2A    -10.328276     3A    -10.276820
       4A    -10.273188     5A    -10.267045     6A     -1.116099
       7A     -0.894766     8A     -0.819199     9A     -0.724513
      10A     -0.675536    11A     -0.607565    12A     -0.553456
      13A     -0.532255    14A     -0.517826    15A     -0.476332
      16A     -0.457670    17A     -0.441502    18A     -0.417089
      19A     -0.409899    20A     -0.405800    21A     -0.357689

  @DF-RKS Final Energy:  -233.64210385995261

   => Energetics <=

    Nuclear Repulsion Energy =            184.9152501879432577
    One-Electron Energy =                -681.8045945528009497
    Two-Electron Energy =                 286.4929408345474258
    DFT Exchange-Correlation Energy =     -23.2388490641587069
    Empirical Dispersion Energy =          -0.0068512654836084
    VV10 Nonlocal Energy =                  0.0000000000000000
    Total Energy =                       -233.6421038599526128

  Dipole Moment: [D]
     X:    -0.5004      Y:    -0.2776      Z:     1.6722     Total:     1.7674

*** Psi4 exiting successfully. Buy a developer a beer!
