                               Psi4 1.3.2 release

  ==> Input File <==

--------------------------------------------------------------------------
molecule {
0 1
 O   -1.982526    0.674614    0.524262
 C    0.082903   -0.036240   -0.486520
 C    1.166683   -0.221030    0.607799
 C   -1.341269   -0.463003   -0.057488
 C    2.577882    0.213386    0.163452
 H    0.055552    1.004450   -0.835513
 H    0.359834   -0.640631   -1.360836
 H    1.199050   -1.272884    0.920871
 H    0.881680    0.353277    1.499546
 H   -1.901702   -0.801941   -0.938345
 H   -1.309309   -1.312857    0.635529
 H    2.914114   -0.362135   -0.705506
 H    3.303239    0.057707    0.968907
 H    2.598542    1.275667   -0.102996
 H   -2.879597    0.410529    0.802260
}
set optking {
  frozen_dihedral = ("
    3 2 4 1
    2 4 1 15
    4 2 3 5
    12 5 3 2
  ")
}
set {
  geom_maxiter 400
  g_convergence GAU_LOOSE
  dynamic_level 1
}
memory 700MB
set_num_threads(8)
psi4_io.set_default_path("/home/daniele/PSI4_sctatch/Psi4-1butanol_3D")
for _ in range(1):
  try:
    set opt_coordinates both
    optimize('wb97x-d/6-311G')
    break
  except OptimizationConvergenceError:
    break
  else:
    try:
      set opt_coordinates cartesian
      optimize('wb97x-d/6-311G')
      break
    except OptimizationConvergenceError:
      pass
clean()
--------------------------------------------------------------------------

    Molecular point group: c1
  Charge       = 0
  Multiplicity = 1
  Basis Set: 6-311G
    Blend: 6-311G
  Basis Set: (6-311G AUX)
    Blend: CC-PVTZ-JKFIT
  @DF-RKS Final Energy:  -233.57873533344326
    Total Energy =                       -233.5787353334432623
    Molecular point group: c1
  Basis Set: 6-311G
    Blend: 6-311G
  Basis Set: (6-311G AUX)
    Blend: CC-PVTZ-JKFIT
  Basis Set: 6-311G
    Blend: 6-311G
  Basis Set: (6-311G AUX)
    Blend: CC-PVTZ-JKFIT
  @DF-RKS Final Energy:  -233.58033145388524
    Total Energy =                       -233.5803314538852362
  Basis Set: 6-311G
    Blend: 6-311G
  Basis Set: (6-311G AUX)
    Blend: CC-PVTZ-JKFIT
  Charge       = 0
  Multiplicity = 1
  Basis Set: 6-311G
    Blend: 6-311G
  Basis Set: (6-311G AUX)
    Blend: CC-PVTZ-JKFIT

    Orbital Energies [Eh]
    ---------------------

    Doubly Occupied:

       1A    -19.234310     2A    -10.329819     3A    -10.274302
       4A    -10.273616     5A    -10.265607     6A     -1.118645
       7A     -0.895360     8A     -0.821817     9A     -0.725885
      10A     -0.673736    11A     -0.607595    12A     -0.544455
      13A     -0.538179    14A     -0.516935    15A     -0.470150
      16A     -0.459365    17A     -0.435582    18A     -0.413473
      19A     -0.406843    20A     -0.397589    21A     -0.349698

  @DF-RKS Final Energy:  -233.58047549509337

   => Energetics <=

    Nuclear Repulsion Energy =            186.2293920344289404
    One-Electron Energy =                -684.3978422728862370
    Two-Electron Energy =                 287.8353375734866972
    DFT Exchange-Correlation Energy =     -23.2404078323356131
    Empirical Dispersion Energy =          -0.0069549977871314
    VV10 Nonlocal Energy =                  0.0000000000000000
    Total Energy =                       -233.5804754950933386

  Dipole Moment: [D]
     X:    -0.8286      Y:    -1.6741      Z:    -0.1137     Total:     1.8714

    Molecular point group: c1
  Basis Set: 6-311G
    Blend: 6-311G
  Basis Set: (6-311G AUX)
    Blend: CC-PVTZ-JKFIT

  -Total Gradient:
     Atom            X                  Y                   Z
    ------   -----------------  -----------------  -----------------
       1       -0.000611318319    -0.001247717693    -0.003190237096
       2       -0.001014273969     0.005188713821     0.001073200090
       3        0.000140587429    -0.002356761067    -0.001193888167
       4        0.001334198855    -0.001108130655     0.004062642588
       5        0.000341127694    -0.000423203820    -0.000404130119
       6        0.000057874260    -0.000159773954     0.000109484488
       7       -0.000097654821    -0.000094636811     0.000076354858
       8        0.000000558795     0.000116452989    -0.000152766823
       9        0.000070203099    -0.000028985160    -0.000110562725
      10       -0.000340915568    -0.000037018362    -0.000384170338
      11        0.000206971896    -0.000140349513     0.000194728251
      12       -0.000084740396     0.000042457463     0.000176247386
      13        0.000007329973    -0.000038074016     0.000061755384
      14       -0.000084955211    -0.000218294428     0.000084781472
      15        0.000178210857     0.000423471626    -0.000579826742

  **** Optimization is complete! (in 3 steps) ****
    Final optimized geometry and variables:
    Molecular point group: c1

    Geometry (in Angstrom), charge = 0, multiplicity = 1:

    O           -2.006029872158     0.629295645415     0.359716051866
    C            0.041646161388    -0.094144212797    -0.647430476203
    C            1.099407162130    -0.261460248389     0.447029137942
    C           -1.352987637130    -0.527327180344    -0.218174076450
    C            2.492653300319     0.183213982769    -0.002656196455
    H           -0.019363978927     0.947597076168    -0.969171096755
    H            0.345655918166    -0.682086876681    -1.520503208549
    H            1.133982262145    -1.313268738521     0.750684097815
    H            0.790655689091     0.309843352528     1.326786287055
    H           -1.925036278046    -0.878104734881    -1.085338592486
    H           -1.291143528786    -1.346606303945     0.508442031988
    H            2.828944120709    -0.397609736757    -0.865244248167
    H            3.227295748728     0.055915974844     0.794600494064
    H            2.489146794455     1.236721795906    -0.291030930633
    H           -2.899117187475     0.411637920092     0.657353013450

*** Psi4 exiting successfully. Buy a developer a beer!
