                               Psi4 1.3.2 release

  ==> Input File <==

--------------------------------------------------------------------------
molecule {
0 1
 O   -2.165198   -0.990399    0.443755
 C   -0.135486    0.152956   -0.252760
 C    1.360732    0.379759   -0.010193
 C   -0.757811   -0.819850    0.740594
 C    1.979307    1.362363   -1.010323
 H   -0.671670    1.106554   -0.185027
 H   -0.298431   -0.230314   -1.265558
 H    1.888364   -0.580195   -0.069990
 H    1.513109    0.754101    1.009964
 H   -0.275859   -1.799529    0.661299
 H   -0.612294   -0.454188    1.765314
 H    1.870918    0.996673   -2.035196
 H    3.045110    1.509002   -0.817876
 H    1.489922    2.339152   -0.951294
 H   -2.718859   -0.725461    1.188191
}
memory 700MB
set_num_threads(8)
psi4_io.set_default_path("/home/daniele/PSI4_sctatch/Psi4-1butanol_3D")
set freeze_core True
E, wfn = energy('wb97x-d/6-311+G*',return_wfn=True)
oeprop(wfn,"WIBERG_LOWDIN_INDICES")
clean()
--------------------------------------------------------------------------

    Molecular point group: c1

    Geometry (in Angstrom), charge = 0, multiplicity = 1:

       Center              X                  Y                   Z               Mass
    ------------   -----------------  -----------------  -----------------  -----------------
         O           -2.165197786695    -0.990398996565     0.443755169282    15.994914619570
         C           -0.135485786695     0.152956003435    -0.252759830718    12.000000000000
         C            1.360732213305     0.379759003435    -0.010192830718    12.000000000000
         C           -0.757810786695    -0.819849996565     0.740594169282    12.000000000000
         C            1.979307213305     1.362363003435    -1.010322830718    12.000000000000
         H           -0.671669786695     1.106554003435    -0.185026830718     1.007825032230
         H           -0.298430786695    -0.230313996565    -1.265557830718     1.007825032230
         H            1.888364213305    -0.580194996565    -0.069989830718     1.007825032230
         H            1.513109213305     0.754101003435     1.009964169282     1.007825032230
         H           -0.275858786695    -1.799528996565     0.661299169282     1.007825032230
         H           -0.612293786695    -0.454187996565     1.765314169282     1.007825032230
         H            1.870918213305     0.996673003435    -2.035195830718     1.007825032230
         H            3.045110213305     1.509002003435    -0.817875830718     1.007825032230
         H            1.489922213305     2.339152003435    -0.951293830718     1.007825032230
         H           -2.718858786695    -0.725460996565     1.188191169282     1.007825032230

  Charge       = 0
  Multiplicity = 1
  Basis Set: 6-311+G*
    Blend: 6-311+G*
  Basis Set: (6-311+G* AUX)
    Blend: HEAVY-AUG-CC-PVTZ-JKFIT

    Orbital Energies [Eh]
    ---------------------

    Doubly Occupied:

       1A    -19.243839     2A    -10.329070     3A    -10.281275
       4A    -10.274248     5A    -10.270463     6A     -1.115587
       7A     -0.896953     8A     -0.820518     9A     -0.726575
      10A     -0.677511    11A     -0.604417    12A     -0.565125
      13A     -0.525545    14A     -0.518438    15A     -0.481775
      16A     -0.457531    17A     -0.438113    18A     -0.422648
      19A     -0.415898    20A     -0.406563    21A     -0.356100

  @DF-RKS Final Energy:  -233.64516170461931

   => Energetics <=

    Nuclear Repulsion Energy =            183.9653881744755211
    One-Electron Energy =                -679.8519242081749780
    Two-Electron Energy =                 285.4829896229021529
    DFT Exchange-Correlation Energy =     -23.2346662908175929
    Empirical Dispersion Energy =          -0.0069490030043798
    VV10 Nonlocal Energy =                  0.0000000000000000
    Total Energy =                       -233.6451617046193121

  Dipole Moment: [D]
     X:     0.7737      Y:     0.7791      Z:     1.5837     Total:     1.9271

*** Psi4 exiting successfully. Buy a developer a beer!
