                               Psi4 1.3.2 release

  ==> Input File <==

--------------------------------------------------------------------------
molecule {
0 1
 O   -2.403297    0.415944   -0.291906
 C   -0.005723    0.233768   -0.131717
 C    1.232088   -0.408601    0.545281
 C   -1.361939   -0.250317    0.429302
 C    2.577495    0.087634   -0.022127
 H    0.036496    1.325643   -0.023460
 H    0.014548    0.026691   -1.209651
 H    1.182528   -1.500366    0.439274
 H    1.204951   -0.206254    1.624221
 H   -1.450215   -1.340654    0.338993
 H   -1.427140   -0.016092    1.498873
 H    2.660949   -0.131160   -1.091982
 H    3.416212   -0.401192    0.485050
 H    2.689448    1.168891    0.113717
 H   -2.641326   -0.125026   -1.068447
}
set optking {
  frozen_dihedral = ("
    2 4 1 15
    4 2 3 5
    3 2 4 1
    12 5 3 2
  ")
}
set {
  geom_maxiter 400
  g_convergence GAU_LOOSE
  dynamic_level 1
}
memory 700MB
set_num_threads(8)
psi4_io.set_default_path("/home/daniele/PSI4_sctatch/Psi4-1butanol_3D")
for _ in range(1):
  try:
    set opt_coordinates both
    optimize('wb97x-d/6-311G')
    break
  except OptimizationConvergenceError:
    break
  else:
    try:
      set opt_coordinates cartesian
      optimize('wb97x-d/6-311G')
      break
    except OptimizationConvergenceError:
      pass
clean()
--------------------------------------------------------------------------

    Molecular point group: c1
  Charge       = 0
  Multiplicity = 1
  Basis Set: 6-311G
    Blend: 6-311G
  Basis Set: (6-311G AUX)
    Blend: CC-PVTZ-JKFIT
  @DF-RKS Final Energy:  -233.57954300864083
    Total Energy =                       -233.5795430086407976
    Molecular point group: c1
  Basis Set: 6-311G
    Blend: 6-311G
  Basis Set: (6-311G AUX)
    Blend: CC-PVTZ-JKFIT
  Basis Set: 6-311G
    Blend: 6-311G
  Basis Set: (6-311G AUX)
    Blend: CC-PVTZ-JKFIT
  @DF-RKS Final Energy:  -232.71209279970813
    Total Energy =                       -232.7120927997081310
  Basis Set: 6-311G
    Blend: 6-311G
  Basis Set: (6-311G AUX)
    Blend: CC-PVTZ-JKFIT
  Basis Set: 6-311G
    Blend: 6-311G
  @DF-RKS Final Energy:  -232.85790752538696
    Total Energy =                       -232.8579075253869632
  @DF-RKS Final Energy:  -233.13184950483659
    Total Energy =                       -233.1318495048365946
  @DF-RKS Final Energy:  -233.35279332434172
    Total Energy =                       -233.3527933243417181
  @DF-RKS Final Energy:  -233.50080185436613
    Total Energy =                       -233.5008018543661308
  @DF-RKS Final Energy:  -233.57048476652662
    Total Energy =                       -233.5704847665266470
  @DF-RKS Final Energy:  -233.58123125526683
    Total Energy =                       -233.5812312552668288
  Basis Set: (6-311G AUX)
    Blend: CC-PVTZ-JKFIT
  Basis Set: 6-311G
    Blend: 6-311G
  Basis Set: (6-311G AUX)
    Blend: CC-PVTZ-JKFIT
  @DF-RKS Final Energy:  -233.58153766340482
    Total Energy =                       -233.5815376634048448
  Basis Set: 6-311G
    Blend: 6-311G
  Basis Set: (6-311G AUX)
    Blend: CC-PVTZ-JKFIT
  Charge       = 0
  Multiplicity = 1
  Basis Set: 6-311G
    Blend: 6-311G
  Basis Set: (6-311G AUX)
    Blend: CC-PVTZ-JKFIT

    Orbital Energies [Eh]
    ---------------------

    Doubly Occupied:

       1A    -19.234366     2A    -10.330038     3A    -10.283855
       4A    -10.277470     5A    -10.272070     6A     -1.118962
       7A     -0.901648     8A     -0.823854     9A     -0.731565
      10A     -0.683237    11A     -0.600610    12A     -0.563122
      13A     -0.530416    14A     -0.518286    15A     -0.480300
      16A     -0.459938    17A     -0.442551    18A     -0.423261
      19A     -0.412910    20A     -0.398336    21A     -0.348734

  @DF-RKS Final Energy:  -233.58172571533254

   => Energetics <=

    Nuclear Repulsion Energy =            184.0901012666652719
    One-Electron Energy =                -679.9568953874845647
    Two-Electron Energy =                 285.5316415351338151
    DFT Exchange-Correlation Energy =     -23.2395525240520868
    Empirical Dispersion Energy =          -0.0070206055949588
    VV10 Nonlocal Energy =                  0.0000000000000000
    Total Energy =                       -233.5817257153325386

  Dipole Moment: [D]
     X:     0.8152      Y:    -1.0591      Z:    -1.5755     Total:     2.0660

    Molecular point group: c1
  Basis Set: 6-311G
    Blend: 6-311G
  Basis Set: (6-311G AUX)
    Blend: CC-PVTZ-JKFIT

  -Total Gradient:
     Atom            X                  Y                   Z
    ------   -----------------  -----------------  -----------------
       1        0.000954221808     0.001750595657    -0.001911155612
       2        0.001272161255     0.000830520514     0.001587435262
       3       -0.001105459755    -0.000129427135    -0.000450634015
       4       -0.001189689127    -0.000343153435    -0.000498301225
       5        0.000248077690    -0.000645634320     0.000205599079
       6       -0.000297668746     0.000521318605     0.000124990248
       7       -0.000228971750     0.000069973129    -0.000214467248
       8        0.000255450128    -0.000499000188    -0.000108316803
       9        0.000185298455    -0.000087195746     0.000147026809
      10       -0.000009104753    -0.000380483600     0.000007368873
      11        0.000233759405    -0.000155138337     0.000270668729
      12       -0.000137668840     0.000154955724    -0.000167555771
      13       -0.000226471609    -0.000035892757     0.000047850291
      14       -0.000062927144     0.000441393730     0.000012039963
      15        0.000001763629    -0.001583956716     0.000991969373

  **** Optimization is complete! (in 10 steps) ****
    Final optimized geometry and variables:
    Molecular point group: c1

    Geometry (in Angstrom), charge = 0, multiplicity = 1:

    O           -1.962509180091    -0.730661515773     1.251968146459
    C           -0.182482277348     0.241070502612    -0.135854951055
    C            1.293546073185     0.174341466859    -0.536878421448
    C           -0.561160805551    -0.810280983599     0.897784734705
    C            1.671968515587     1.235273861401    -1.572638374596
    H           -0.422804084343     1.229204283499     0.267170826063
    H           -0.808265735872     0.105047615556    -1.025930542012
    H            1.519988890743    -0.821887748728    -0.934727389564
    H            1.917464586366     0.296886267688     0.355406862083
    H           -0.305626119968    -1.812498154702     0.532383111925
    H           -0.009886025996    -0.643586661877     1.823677890306
    H            1.083903200731     1.116421839111    -2.486335649642
    H            2.727300935322     1.170040667948    -1.841582474312
    H            1.484600275308     2.240905965513    -1.187094680483
    H           -2.495674454772    -1.290962132355     0.672876723972

*** Psi4 exiting successfully. Buy a developer a beer!
