                               Psi4 1.3.2 release

  ==> Input File <==

--------------------------------------------------------------------------
molecule {
0 1
 O   -2.407027    0.357385   -0.316333
 C    0.059606    0.212039   -0.235508
 C    1.269077   -0.427438    0.451457
 C   -1.271436   -0.248710    0.344741
 C    2.599766    0.046558   -0.137547
 H    0.118082    1.301789   -0.157535
 H    0.084823   -0.034988   -1.304982
 H    1.197879   -1.516371    0.367792
 H    1.239302   -0.196141    1.520856
 H   -1.341885   -1.339738    0.272017
 H   -1.350572    0.027485    1.395372
 H    2.665394   -0.198494   -1.200130
 H    3.445764   -0.421381    0.368076
 H    2.705176    1.129069   -0.037983
 H   -2.199286    0.548529   -1.241334
}
memory 700MB
set_num_threads(8)
psi4_io.set_default_path("/home/daniele/PSI4_sctatch/Psi4-1butanol_3D")
set freeze_core True
E, wfn = energy('wb97x-d/6-311+G*',return_wfn=True)
oeprop(wfn,"WIBERG_LOWDIN_INDICES")
clean()
--------------------------------------------------------------------------

    Molecular point group: c1

    Geometry (in Angstrom), charge = 0, multiplicity = 1:

       Center              X                  Y                   Z               Mass
    ------------   -----------------  -----------------  -----------------  -----------------
         O           -2.407027141173     0.357384862934    -0.316333080852    15.994914619570
         C            0.059605858827     0.212038862934    -0.235508080852    12.000000000000
         C            1.269076858827    -0.427438137066     0.451456919148    12.000000000000
         C           -1.271436141173    -0.248710137066     0.344740919148    12.000000000000
         C            2.599765858827     0.046557862934    -0.137547080852    12.000000000000
         H            0.118081858827     1.301788862934    -0.157535080852     1.007825032230
         H            0.084822858827    -0.034988137066    -1.304982080852     1.007825032230
         H            1.197878858827    -1.516371137066     0.367791919148     1.007825032230
         H            1.239301858827    -0.196141137066     1.520855919148     1.007825032230
         H           -1.341885141173    -1.339738137066     0.272016919148     1.007825032230
         H           -1.350572141173     0.027484862934     1.395371919148     1.007825032230
         H            2.665393858827    -0.198494137066    -1.200130080852     1.007825032230
         H            3.445763858827    -0.421381137066     0.368075919148     1.007825032230
         H            2.705175858827     1.129068862934    -0.037983080852     1.007825032230
         H           -2.199286141173     0.548528862934    -1.241334080852     1.007825032230

  Charge       = 0
  Multiplicity = 1
  Basis Set: 6-311+G*
    Blend: 6-311+G*
  Basis Set: (6-311+G* AUX)
    Blend: HEAVY-AUG-CC-PVTZ-JKFIT

    Orbital Energies [Eh]
    ---------------------

    Doubly Occupied:

       1A    -19.242759     2A    -10.327355     3A    -10.286828
       4A    -10.285609     5A    -10.275124     6A     -1.115073
       7A     -0.903896     8A     -0.823452     9A     -0.734685
      10A     -0.689456    11A     -0.589640    12A     -0.570513
      13A     -0.532134    14A     -0.523979    15A     -0.478049
      16A     -0.473498    17A     -0.457532    18A     -0.427930
      19A     -0.419452    20A     -0.400589    21A     -0.357317

  @DF-RKS Final Energy:  -233.64588829982441

   => Energetics <=

    Nuclear Repulsion Energy =            184.3158612575565769
    One-Electron Energy =                -680.3762205482287300
    Two-Electron Energy =                 285.6629061172584443
    DFT Exchange-Correlation Energy =     -23.2413071363146955
    Empirical Dispersion Energy =          -0.0071279900959845
    VV10 Nonlocal Energy =                  0.0000000000000000
    Total Energy =                       -233.6458882998244349

  Dipole Moment: [D]
     X:     2.0733      Y:    -0.3765      Z:    -0.7259     Total:     2.2287

*** Psi4 exiting successfully. Buy a developer a beer!
