                               Psi4 1.3.2 release

  ==> Input File <==

--------------------------------------------------------------------------
molecule {
0 1
 O   -2.288828    0.351971   -0.594378
 C    0.068246    0.211042   -0.228936
 C    1.225539   -0.406471    0.560777
 C   -1.288487   -0.291810    0.226950
 C    2.590881    0.105490    0.095200
 H    0.085551    1.299444   -0.129460
 H    0.179923   -0.013029   -1.292984
 H    1.193001   -1.496803    0.463205
 H    1.098464   -0.186852    1.626190
 H   -1.339202   -1.382184    0.115159
 H   -1.440770   -0.047978    1.285879
 H    2.754548   -0.129623   -0.958785
 H    3.402044   -0.344198    0.670615
 H    2.657908    1.189772    0.208524
 H   -3.178373    0.070836   -0.342102
}
memory 700MB
set_num_threads(8)
psi4_io.set_default_path("/home/daniele/PSI4_sctatch/Psi4-1butanol_3D")
set freeze_core True
E, wfn = energy('wb97x-d/6-311+G*',return_wfn=True)
oeprop(wfn,"WIBERG_LOWDIN_INDICES")
clean()
--------------------------------------------------------------------------

    Molecular point group: c1

    Geometry (in Angstrom), charge = 0, multiplicity = 1:

       Center              X                  Y                   Z               Mass
    ------------   -----------------  -----------------  -----------------  -----------------
         O           -2.288827881146     0.351970996657    -0.594377858615    15.994914619570
         C            0.068246118854     0.211041996657    -0.228935858615    12.000000000000
         C            1.225539118854    -0.406471003343     0.560777141385    12.000000000000
         C           -1.288486881146    -0.291810003343     0.226950141385    12.000000000000
         C            2.590881118854     0.105489996657     0.095200141385    12.000000000000
         H            0.085551118854     1.299443996657    -0.129459858615     1.007825032230
         H            0.179923118854    -0.013029003343    -1.292983858615     1.007825032230
         H            1.193001118854    -1.496803003343     0.463205141385     1.007825032230
         H            1.098464118854    -0.186852003343     1.626190141385     1.007825032230
         H           -1.339201881146    -1.382184003343     0.115159141385     1.007825032230
         H           -1.440769881146    -0.047978003343     1.285879141385     1.007825032230
         H            2.754548118854    -0.129623003343    -0.958784858615     1.007825032230
         H            3.402044118854    -0.344198003343     0.670615141385     1.007825032230
         H            2.657908118854     1.189771996657     0.208524141385     1.007825032230
         H           -3.178372881146     0.070835996657    -0.342101858615     1.007825032230

  Charge       = 0
  Multiplicity = 1
  Basis Set: 6-311+G*
    Blend: 6-311+G*
  Basis Set: (6-311+G* AUX)
    Blend: HEAVY-AUG-CC-PVTZ-JKFIT

    Orbital Energies [Eh]
    ---------------------

    Doubly Occupied:

       1A    -19.244954     2A    -10.327975     3A    -10.279852
       4A    -10.273107     5A    -10.268866     6A     -1.116633
       7A     -0.897585     8A     -0.821152     9A     -0.723993
      10A     -0.676804    11A     -0.598818    12A     -0.574020
      13A     -0.522395    14A     -0.519151    15A     -0.485812
      16A     -0.451408    17A     -0.440616    18A     -0.419658
      19A     -0.410641    20A     -0.407043    21A     -0.360528

  @DF-RKS Final Energy:  -233.64693470391484

   => Energetics <=

    Nuclear Repulsion Energy =            184.5071242699719392
    One-Electron Energy =                -680.9491093417200318
    Two-Electron Energy =                 286.0430936951194667
    DFT Exchange-Correlation Energy =     -23.2410896329214971
    Empirical Dispersion Energy =          -0.0069536943647239
    VV10 Nonlocal Energy =                  0.0000000000000000
    Total Energy =                       -233.6469347039148374

  Dipole Moment: [D]
     X:    -0.2299      Y:    -1.1893      Z:     1.3515     Total:     1.8149

*** Psi4 exiting successfully. Buy a developer a beer!
