                               Psi4 1.3.2 release

  ==> Input File <==

--------------------------------------------------------------------------
molecule {
0 1
 O   -2.280688    0.392106   -0.573561
 C    0.075201    0.041879   -0.373954
 C    1.239650   -0.542600    0.441954
 C   -1.272686   -0.188229    0.284198
 C    2.546884    0.231366    0.250978
 H    0.205927    1.121812   -0.487145
 H    0.055313   -0.377915   -1.381579
 H    1.385382   -1.595413    0.185560
 H    0.980646   -0.522015    1.507248
 H   -1.449193   -1.262828    0.420723
 H   -1.283984    0.288728    1.272292
 H    2.856365    0.225432   -0.796652
 H    3.356497   -0.203526    0.840243
 H    2.425651    1.272322    0.557952
 H   -3.163785    0.278763   -0.197716
}
memory 700MB
set_num_threads(8)
psi4_io.set_default_path("/home/daniele/PSI4_sctatch/Psi4-1butanol_3D")
set freeze_core True
E, wfn = energy('wb97x-d/6-311+G*',return_wfn=True)
oeprop(wfn,"WIBERG_LOWDIN_INDICES")
clean()
--------------------------------------------------------------------------

    Molecular point group: c1

    Geometry (in Angstrom), charge = 0, multiplicity = 1:

       Center              X                  Y                   Z               Mass
    ------------   -----------------  -----------------  -----------------  -----------------
         O           -2.280688112697     0.392106102482    -0.573561136132    15.994914619570
         C            0.075200887303     0.041879102482    -0.373954136132    12.000000000000
         C            1.239649887303    -0.542599897518     0.441953863868    12.000000000000
         C           -1.272686112697    -0.188228897518     0.284197863868    12.000000000000
         C            2.546883887303     0.231366102482     0.250977863868    12.000000000000
         H            0.205926887303     1.121812102482    -0.487145136132     1.007825032230
         H            0.055312887303    -0.377914897518    -1.381579136132     1.007825032230
         H            1.385381887303    -1.595412897518     0.185559863868     1.007825032230
         H            0.980645887303    -0.522014897518     1.507247863868     1.007825032230
         H           -1.449193112697    -1.262827897518     0.420722863868     1.007825032230
         H           -1.283984112697     0.288728102482     1.272291863868     1.007825032230
         H            2.856364887303     0.225432102482    -0.796652136132     1.007825032230
         H            3.356496887303    -0.203525897518     0.840242863868     1.007825032230
         H            2.425650887303     1.272322102482     0.557951863868     1.007825032230
         H           -3.163785112697     0.278763102482    -0.197716136132     1.007825032230

  Charge       = 0
  Multiplicity = 1
  Basis Set: 6-311+G*
    Blend: 6-311+G*
  Basis Set: (6-311+G* AUX)
    Blend: HEAVY-AUG-CC-PVTZ-JKFIT

    Orbital Energies [Eh]
    ---------------------

    Doubly Occupied:

       1A    -19.245113     2A    -10.328222     3A    -10.279885
       4A    -10.272937     5A    -10.268955     6A     -1.116867
       7A     -0.896587     8A     -0.821033     9A     -0.724208
      10A     -0.676976    11A     -0.599819    12A     -0.570858
      13A     -0.527564    14A     -0.515132    15A     -0.484547
      16A     -0.457182    17A     -0.435252    18A     -0.419860
      19A     -0.409961    20A     -0.406552    21A     -0.360642

  @DF-RKS Final Energy:  -233.64482663493777

   => Energetics <=

    Nuclear Repulsion Energy =            184.5527567286575561
    One-Electron Energy =                -681.0427679594697565
    Two-Electron Energy =                 286.0920490714290167
    DFT Exchange-Correlation Energy =     -23.2399622363814409
    Empirical Dispersion Energy =          -0.0069022391731390
    VV10 Nonlocal Energy =                  0.0000000000000000
    Total Energy =                       -233.6448266349378002

  Dipole Moment: [D]
     X:    -0.2127      Y:    -0.8682      Z:     1.5694     Total:     1.8061

*** Psi4 exiting successfully. Buy a developer a beer!
