                               Psi4 1.3.2 release

  ==> Input File <==

--------------------------------------------------------------------------
molecule {
0 1
 O   -2.485185    0.243803   -0.243990
 C   -0.046243    0.164136   -0.134471
 C    1.219120   -0.403421    0.559527
 C   -1.382548   -0.334987    0.473609
 C    2.542046    0.102839   -0.050615
 H   -0.036893    1.260798   -0.081519
 H   -0.027488   -0.103571   -1.199229
 H    1.202241   -1.500397    0.512614
 H    1.198095   -0.144960    1.626648
 H   -1.427007   -1.430037    0.420236
 H   -1.436688   -0.072678    1.537080
 H    2.620418   -0.170024   -1.108508
 H    3.401238   -0.332751    0.470687
 H    2.622264    1.192604    0.026411
 H   -2.238294    0.407555   -1.173059
}
set optking {
  frozen_dihedral = ("
    2 4 1 15
    4 2 3 5
    3 2 4 1
    12 5 3 2
  ")
}
set {
  geom_maxiter 400
  g_convergence GAU_LOOSE
  dynamic_level 1
}
memory 700MB
set_num_threads(8)
psi4_io.set_default_path("/home/daniele/PSI4_sctatch/Psi4-1butanol_3D")
for _ in range(1):
  try:
    set opt_coordinates both
    optimize('wb97x-d/6-311G')
    break
  except OptimizationConvergenceError:
    break
  else:
    try:
      set opt_coordinates cartesian
      optimize('wb97x-d/6-311G')
      break
    except OptimizationConvergenceError:
      pass
clean()
--------------------------------------------------------------------------

    Molecular point group: c1
  Charge       = 0
  Multiplicity = 1
  Basis Set: 6-311G
    Blend: 6-311G
  Basis Set: (6-311G AUX)
    Blend: CC-PVTZ-JKFIT
  @DF-RKS Final Energy:  -233.57970261599306
    Total Energy =                       -233.5797026159930567
    Molecular point group: c1
  Basis Set: 6-311G
    Blend: 6-311G
  Basis Set: (6-311G AUX)
    Blend: CC-PVTZ-JKFIT
  Basis Set: 6-311G
    Blend: 6-311G
  Basis Set: (6-311G AUX)
    Blend: CC-PVTZ-JKFIT
  @DF-RKS Final Energy:  -233.58149462066172
    Total Energy =                       -233.5814946206617151
  Basis Set: 6-311G
    Blend: 6-311G
  Basis Set: (6-311G AUX)
    Blend: CC-PVTZ-JKFIT
  Charge       = 0
  Multiplicity = 1
  Basis Set: 6-311G
    Blend: 6-311G
  Basis Set: (6-311G AUX)
    Blend: CC-PVTZ-JKFIT

    Orbital Energies [Eh]
    ---------------------

    Doubly Occupied:

       1A    -19.232532     2A    -10.328905     3A    -10.289022
       4A    -10.288038     5A    -10.276307     6A     -1.117934
       7A     -0.907104     8A     -0.826397     9A     -0.736892
      10A     -0.692328    11A     -0.589013    12A     -0.570114
      13A     -0.533188    14A     -0.524368    15A     -0.477440
      16A     -0.469711    17A     -0.457248    18A     -0.428142
      19A     -0.418186    20A     -0.392230    21A     -0.348635

  @DF-RKS Final Energy:  -233.58157409018790

   => Energetics <=

    Nuclear Repulsion Energy =            184.3158523650862435
    One-Electron Energy =                -680.2700428775455066
    Two-Electron Energy =                 285.6213807190470675
    DFT Exchange-Correlation Energy =     -23.2416363066375382
    Empirical Dispersion Energy =          -0.0071279901381571
    VV10 Nonlocal Energy =                  0.0000000000000000
    Total Energy =                       -233.5815740901878712

  Dipole Moment: [D]
     X:     2.1469      Y:    -0.3795      Z:    -0.8107     Total:     2.3260

    Molecular point group: c1
  Basis Set: 6-311G
    Blend: 6-311G
  Basis Set: (6-311G AUX)
    Blend: CC-PVTZ-JKFIT

  -Total Gradient:
     Atom            X                  Y                   Z
    ------   -----------------  -----------------  -----------------
       1        0.000140331565    -0.003337642778    -0.001433920466
       2        0.001070539407    -0.001234170597    -0.000325952836
       3       -0.000573766320    -0.000125835802    -0.000386807735
       4       -0.000857363415     0.003082403745     0.001542351452
       5        0.000156725509     0.000098537853    -0.000122873623
       6       -0.000332818031    -0.000238173935     0.000211727444
       7       -0.000117839457    -0.000069401591    -0.000101445852
       8       -0.000009878385     0.000182702771    -0.000084772372
       9        0.000035746196    -0.000066921394    -0.000072695098
      10        0.000240731712     0.000024406634    -0.000182501789
      11        0.000218739470    -0.000149777031     0.000127347011
      12       -0.000082507392     0.000109034533     0.000144886555
      13       -0.000071349462    -0.000015299570    -0.000004570427
      14       -0.000082454028    -0.000204678411     0.000027126717
      15        0.000220879521     0.001905413884     0.000585931684

  **** Optimization is complete! (in 3 steps) ****
    Final optimized geometry and variables:
    Molecular point group: c1

    Geometry (in Angstrom), charge = 0, multiplicity = 1:

    O           -2.407027188924     0.357384724260    -0.316332649155
    C            0.059606115756     0.212038599702    -0.235508463072
    C            1.269077160697    -0.427437612204     0.451456577663
    C           -1.271436437040    -0.248710326640     0.344741381194
    C            2.599765559435     0.046557863537    -0.137547418951
    H            0.118081774757     1.301789467422    -0.157535270093
    H            0.084823351160    -0.034988418946    -1.304982485038
    H            1.197879357114    -1.516371160673     0.367791961000
    H            1.239302298827    -0.196140917311     1.520855814206
    H           -1.341885382574    -1.339737800469     0.272017468730
    H           -1.350571788929     0.027484702760     1.395372422649
    H            2.665393513563    -0.198494066426    -1.200130449114
    H            3.445764161134    -0.421380806768     0.368076001864
    H            2.705175863647     1.129069452867    -0.037982793592
    H           -2.199286368442     0.548528512595    -1.241334189306

*** Psi4 exiting successfully. Buy a developer a beer!
