                               Psi4 1.3.2 release

  ==> Input File <==

--------------------------------------------------------------------------
molecule {
0 1
 O   -2.212722    0.386854   -0.423782
 C    0.017964   -0.480482   -0.637333
 C    1.393395   -0.828495   -0.006147
 C   -1.018295    0.147101    0.324080
 C    2.158367    0.370480    0.593405
 H    0.165446    0.207892   -1.480062
 H   -0.422645   -1.390829   -1.065249
 H    2.024121   -1.304356   -0.768774
 H    1.251592   -1.587856    0.774232
 H   -1.211545   -0.529923    1.165638
 H   -0.633718    1.083815    0.745477
 H    2.363265    1.129085   -0.169606
 H    3.121599    0.045652    1.001429
 H    1.599395    0.841469    1.408306
 H   -2.871145    0.788504    0.173807
}
set optking {
  frozen_dihedral = ("
    4 2 3 5
    2 4 1 15
    3 2 4 1
    12 5 3 2
  ")
}
set {
  geom_maxiter 400
  g_convergence GAU_LOOSE
  dynamic_level 1
}
memory 700MB
set_num_threads(8)
psi4_io.set_default_path("/home/daniele/PSI4_sctatch/Psi4-1butanol_3D")
for _ in range(1):
  try:
    set opt_coordinates both
    optimize('wb97x-d/6-311G')
    break
  except OptimizationConvergenceError:
    break
  else:
    try:
      set opt_coordinates cartesian
      optimize('wb97x-d/6-311G')
      break
    except OptimizationConvergenceError:
      pass
clean()
--------------------------------------------------------------------------

    Molecular point group: c1
  Charge       = 0
  Multiplicity = 1
  Basis Set: 6-311G
    Blend: 6-311G
  Basis Set: (6-311G AUX)
    Blend: CC-PVTZ-JKFIT
  @DF-RKS Final Energy:  -233.58005454360207
    Total Energy =                       -233.5800545436020457
    Molecular point group: c1
  Basis Set: 6-311G
    Blend: 6-311G
  Basis Set: (6-311G AUX)
    Blend: CC-PVTZ-JKFIT
  Basis Set: 6-311G
    Blend: 6-311G
  Basis Set: (6-311G AUX)
    Blend: CC-PVTZ-JKFIT
  @DF-RKS Final Energy:  -233.58147149882757
    Total Energy =                       -233.5814714988275682
  Basis Set: 6-311G
    Blend: 6-311G
  Basis Set: (6-311G AUX)
    Blend: CC-PVTZ-JKFIT
  Charge       = 0
  Multiplicity = 1
  Basis Set: 6-311G
    Blend: 6-311G
  Basis Set: (6-311G AUX)
    Blend: CC-PVTZ-JKFIT

    Orbital Energies [Eh]
    ---------------------

    Doubly Occupied:

       1A    -19.234538     2A    -10.328790     3A    -10.281143
       4A    -10.273874     5A    -10.271000     6A     -1.118938
       7A     -0.899169     8A     -0.819596     9A     -0.739532
      10A     -0.667095    11A     -0.599809    12A     -0.566666
      13A     -0.537606    14A     -0.506735    15A     -0.484816
      16A     -0.463002    17A     -0.430303    18A     -0.418771
      19A     -0.410060    20A     -0.395131    21A     -0.351297

  @DF-RKS Final Energy:  -233.58161270330072

   => Energetics <=

    Nuclear Repulsion Energy =            187.0841747552433958
    One-Electron Energy =                -686.0183870949227867
    Two-Electron Energy =                 288.6015545034490515
    DFT Exchange-Correlation Energy =     -23.2416035535188357
    Empirical Dispersion Energy =          -0.0073513135515867
    VV10 Nonlocal Energy =                  0.0000000000000000
    Total Energy =                       -233.5816127033007774

  Dipole Moment: [D]
     X:     0.3067      Y:     0.3479      Z:     1.8335     Total:     1.8912

    Molecular point group: c1
  Basis Set: 6-311G
    Blend: 6-311G
  Basis Set: (6-311G AUX)
    Blend: CC-PVTZ-JKFIT

  -Total Gradient:
     Atom            X                  Y                   Z
    ------   -----------------  -----------------  -----------------
       1        0.001327784342     0.000846029803     0.001033616986
       2       -0.000847641179    -0.002325868452     0.001367652517
       3        0.001699264451     0.001238958677    -0.002541223661
       4       -0.001094309825     0.000071843536    -0.001087363827
       5       -0.001621741558     0.000721623223     0.001586362838
       6       -0.000048501293    -0.000014772786     0.000185042873
       7       -0.000076346033     0.000114199917     0.000012965748
       8       -0.000148172933     0.000080707596     0.000058207264
       9        0.000003643113     0.000202149331    -0.000064454334
      10        0.000052016649    -0.000145099314     0.000179248687
      11       -0.000132183456     0.000158297353    -0.000073290332
      12        0.001037116917    -0.000799478931    -0.000212846472
      13       -0.000128468237     0.000067054397    -0.000033424179
      14        0.000175701940    -0.000139287212    -0.000079118458
      15       -0.000207673048    -0.000023442493    -0.000346355621

  **** Optimization is complete! (in 3 steps) ****
    Final optimized geometry and variables:
    Molecular point group: c1

    Geometry (in Angstrom), charge = 0, multiplicity = 1:

    O           -2.195245971579     0.467184036054    -0.403523427437
    C            0.007215827668    -0.418061177054    -0.620233363947
    C            1.356154556608    -0.782689794618     0.015351805233
    C           -0.988434007010     0.196511117985     0.346626395110
    C            2.115120455058     0.399748777876     0.628668976004
    H            0.162181152904     0.290738799027    -1.438611055206
    H           -0.450942742910    -1.308670264066    -1.055720618281
    H            1.981060406947    -1.251810545264    -0.748717099302
    H            1.195065493551    -1.543926999983     0.786784247371
    H           -1.187445132031    -0.499508068038     1.171839670479
    H           -0.593011530080     1.126928403737     0.767877482944
    H            2.330064185514     1.157494474207    -0.128629529651
    H            3.069887479178     0.070662876956     1.043045231539
    H            1.555894475237     0.873606021735     1.436778107726
    H           -2.871287284553     0.867507302958     0.159109378907

*** Psi4 exiting successfully. Buy a developer a beer!
