                               Psi4 1.3.2 release

  ==> Input File <==

--------------------------------------------------------------------------
molecule {
0 1
 O   -2.197511    0.240796   -0.571879
 C   -0.053635    0.677687    0.420070
 C    1.332624    0.176815    0.909082
 C   -0.985366   -0.404318   -0.174234
 C    2.212689   -0.476291   -0.177907
 H   -0.579202    1.157095    1.256895
 H    0.087795    1.461059   -0.336424
 H    1.189062   -0.539386    1.728884
 H    1.881274    1.020518    1.348001
 H   -0.510229   -0.892437   -1.033750
 H   -1.181968   -1.184498    0.571932
 H    1.727340   -1.352687   -0.618717
 H    3.169962   -0.802267    0.242789
 H    2.427415    0.231729   -0.985717
 H   -2.795174   -0.434907   -0.943603
}
set optking {
  frozen_dihedral = ("
    4 2 3 5
    2 4 1 15
    3 2 4 1
    12 5 3 2
  ")
}
set {
  geom_maxiter 400
  g_convergence GAU_LOOSE
  dynamic_level 1
}
memory 700MB
set_num_threads(8)
psi4_io.set_default_path("/home/daniele/PSI4_sctatch/Psi4-1butanol_3D")
for _ in range(1):
  try:
    set opt_coordinates both
    optimize('wb97x-d/6-311G')
    break
  except OptimizationConvergenceError:
    break
  else:
    try:
      set opt_coordinates cartesian
      optimize('wb97x-d/6-311G')
      break
    except OptimizationConvergenceError:
      pass
clean()
--------------------------------------------------------------------------

    Molecular point group: c1
  Charge       = 0
  Multiplicity = 1
  Basis Set: 6-311G
    Blend: 6-311G
  Basis Set: (6-311G AUX)
    Blend: CC-PVTZ-JKFIT
  @DF-RKS Final Energy:  -233.57999648533112
    Total Energy =                       -233.5799964853310939
    Molecular point group: c1
  Basis Set: 6-311G
    Blend: 6-311G
  Basis Set: (6-311G AUX)
    Blend: CC-PVTZ-JKFIT
  Basis Set: 6-311G
    Blend: 6-311G
  Basis Set: (6-311G AUX)
    Blend: CC-PVTZ-JKFIT
  @DF-RKS Final Energy:  -233.58140495531472
    Total Energy =                       -233.5814049553146958
  Basis Set: 6-311G
    Blend: 6-311G
  Basis Set: (6-311G AUX)
    Blend: CC-PVTZ-JKFIT
  Charge       = 0
  Multiplicity = 1
  Basis Set: 6-311G
    Blend: 6-311G
  Basis Set: (6-311G AUX)
    Blend: CC-PVTZ-JKFIT

    Orbital Energies [Eh]
    ---------------------

    Doubly Occupied:

       1A    -19.234600     2A    -10.328891     3A    -10.281136
       4A    -10.274007     5A    -10.270941     6A     -1.118982
       7A     -0.899214     8A     -0.819574     9A     -0.739629
      10A     -0.667163    11A     -0.599776    12A     -0.566769
      13A     -0.537512    14A     -0.506926    15A     -0.485070
      16A     -0.462573    17A     -0.430064    18A     -0.419364
      19A     -0.409936    20A     -0.395197    21A     -0.351325

  @DF-RKS Final Energy:  -233.58155728505068

   => Energetics <=

    Nuclear Repulsion Energy =            187.0933028912695306
    One-Electron Energy =                -686.0349727362275871
    Two-Electron Energy =                 288.6090871870326851
    DFT Exchange-Correlation Energy =     -23.2416267428733434
    Empirical Dispersion Energy =          -0.0073478842520098
    VV10 Nonlocal Energy =                  0.0000000000000000
    Total Energy =                       -233.5815572850506783

  Dipole Moment: [D]
     X:     0.4209      Y:    -1.8382      Z:    -0.0930     Total:     1.8880

    Molecular point group: c1
  Basis Set: 6-311G
    Blend: 6-311G
  Basis Set: (6-311G AUX)
    Blend: CC-PVTZ-JKFIT

  -Total Gradient:
     Atom            X                  Y                   Z
    ------   -----------------  -----------------  -----------------
       1        0.001473041012    -0.000972606472    -0.000755657250
       2       -0.001123794831    -0.001355018077     0.002619666125
       3        0.001320253794     0.002925975535    -0.002019727505
       4       -0.001028646588     0.001007585879    -0.000228469440
       5        0.000496098226    -0.002412745433     0.001373395149
       6       -0.000060104833    -0.000029603453    -0.000101470899
       7       -0.000017447969    -0.000168940833     0.000032946205
       8        0.000023050705    -0.000001461155    -0.000229283487
       9       -0.000128092879    -0.000075136912    -0.000105188179
      10       -0.000095939295     0.000031327093    -0.000203862181
      11        0.000018845699    -0.000190193008     0.000184751192
      12       -0.000396246929     0.000961537533    -0.000843397289
      13       -0.000027861715    -0.000012510718    -0.000017370853
      14       -0.000147247142    -0.000043126856     0.000262118694
      15       -0.000211023940     0.000320262435     0.000011617723

  **** Optimization is complete! (in 3 steps) ****
    Final optimized geometry and variables:
    Molecular point group: c1

    Geometry (in Angstrom), charge = 0, multiplicity = 1:

    O           -2.161504934745     0.203291633567    -0.693025007990
    C           -0.068349379948     0.656241646621     0.352459319642
    C            1.280929710181     0.157866090609     0.888674041687
    C           -0.947085763069    -0.434147344344    -0.232845290858
    C            2.176200206280    -0.516845137127    -0.156990015598
    H           -0.626777237470     1.147686630126     1.152044104512
    H            0.096809828004     1.406862713805    -0.425752489351
    H            1.102560117883    -0.542187452880     1.712603821025
    H            1.814026990970     1.007724867568     1.322180097856
    H           -0.443910472418    -0.927457415447    -1.071227606944
    H           -1.166296109493    -1.190223352469     0.532227022362
    H            1.699722516832    -1.393277667229    -0.599116210973
    H            3.120656116383    -0.837917548833     0.285037283239
    H            2.404636201069     0.175873425861    -0.970925132794
    H           -2.769617437942    -0.443606750976    -1.074521194537

*** Psi4 exiting successfully. Buy a developer a beer!
