                               Psi4 1.3.2 release

  ==> Input File <==

--------------------------------------------------------------------------
molecule {
0 1
 O   -2.343852    0.408954   -0.443919
 C    0.070733    0.222884   -0.227788
 C    1.245522   -0.438171    0.496791
 C   -1.280034   -0.246554    0.289417
 C    2.601684    0.041930   -0.025424
 H    0.125957    1.309379   -0.121316
 H    0.125740    0.007016   -1.298971
 H    1.177033   -1.525836    0.385983
 H    1.174405   -0.231836    1.569991
 H   -1.353855   -1.336601    0.201047
 H   -1.392795    0.013389    1.344824
 H    2.709318   -0.181111   -1.089292
 H    3.425519   -0.438976    0.504777
 H    2.704963    1.121934    0.099852
 H   -2.906743   -0.227950   -0.897880
}
memory 700MB
set_num_threads(8)
psi4_io.set_default_path("/home/daniele/PSI4_sctatch/Psi4-1butanol_3D")
set freeze_core True
E, wfn = energy('wb97x-d/6-311+G*',return_wfn=True)
oeprop(wfn,"WIBERG_LOWDIN_INDICES")
clean()
--------------------------------------------------------------------------

    Molecular point group: c1

    Geometry (in Angstrom), charge = 0, multiplicity = 1:

       Center              X                  Y                   Z               Mass
    ------------   -----------------  -----------------  -----------------  -----------------
         O           -2.343851901879     0.408954048832    -0.443918869209    15.994914619570
         C            0.070733098121     0.222884048832    -0.227787869209    12.000000000000
         C            1.245522098121    -0.438170951168     0.496791130791    12.000000000000
         C           -1.280033901879    -0.246553951168     0.289417130791    12.000000000000
         C            2.601684098121     0.041930048832    -0.025423869209    12.000000000000
         H            0.125957098121     1.309379048832    -0.121315869209     1.007825032230
         H            0.125740098121     0.007016048832    -1.298970869209     1.007825032230
         H            1.177033098121    -1.525835951168     0.385983130791     1.007825032230
         H            1.174405098121    -0.231835951168     1.569991130791     1.007825032230
         H           -1.353854901879    -1.336600951168     0.201047130791     1.007825032230
         H           -1.392794901879     0.013389048832     1.344824130791     1.007825032230
         H            2.709318098121    -0.181110951168    -1.089291869209     1.007825032230
         H            3.425519098121    -0.438975951168     0.504777130791     1.007825032230
         H            2.704963098121     1.121934048832     0.099852130791     1.007825032230
         H           -2.906742901879    -0.227949951168    -0.897879869209     1.007825032230

  Charge       = 0
  Multiplicity = 1
  Basis Set: 6-311+G*
    Blend: 6-311+G*
  Basis Set: (6-311+G* AUX)
    Blend: HEAVY-AUG-CC-PVTZ-JKFIT

    Orbital Energies [Eh]
    ---------------------

    Doubly Occupied:

       1A    -19.243467     2A    -10.328400     3A    -10.280522
       4A    -10.273452     5A    -10.269752     6A     -1.115501
       7A     -0.898061     8A     -0.821168     9A     -0.726792
      10A     -0.678151    11A     -0.604480    12A     -0.566062
      13A     -0.526192    14A     -0.518532    15A     -0.482342
      16A     -0.457540    17A     -0.437985    18A     -0.423135
      19A     -0.416012    20A     -0.406640    21A     -0.356130

  @DF-RKS Final Energy:  -233.64515497213310

   => Energetics <=

    Nuclear Repulsion Energy =            184.2127856016154794
    One-Electron Energy =                -680.3377847496344657
    Two-Electron Energy =                 285.7285003187920438
    DFT Exchange-Correlation Energy =     -23.2416975523151876
    Empirical Dispersion Energy =          -0.0069585905909353
    VV10 Nonlocal Energy =                  0.0000000000000000
    Total Energy =                       -233.6451549721330991

  Dipole Moment: [D]
     X:     0.4223      Y:    -1.8836      Z:     0.0212     Total:     1.9305

*** Psi4 exiting successfully. Buy a developer a beer!
