                               Psi4 1.3.2 release

  ==> Input File <==

--------------------------------------------------------------------------
molecule {
0 1
 O   -2.219580    0.457907   -0.456134
 C    0.045797   -0.290882   -0.586448
 C    1.312914   -0.748046    0.157192
 C   -1.093715    0.055491    0.355832
 C    2.256078    0.406815    0.511811
 H    0.263679    0.578174   -1.211321
 H   -0.311424   -1.078424   -1.253685
 H    1.856407   -1.461161   -0.467908
 H    1.034085   -1.293802    1.064801
 H   -1.349429   -0.823454    0.960433
 H   -0.796800    0.864647    1.035017
 H    2.583532    0.923735   -0.392553
 H    3.143046    0.049779    1.038435
 H    1.762106    1.142256    1.151670
 H   -2.976855    0.696678    0.094477
}
memory 700MB
set_num_threads(8)
psi4_io.set_default_path("/home/daniele/PSI4_sctatch/Psi4-1butanol_3D")
set freeze_core True
E, wfn = energy('wb97x-d/6-311+G*',return_wfn=True)
oeprop(wfn,"WIBERG_LOWDIN_INDICES")
clean()
--------------------------------------------------------------------------

    Molecular point group: c1

    Geometry (in Angstrom), charge = 0, multiplicity = 1:

       Center              X                  Y                   Z               Mass
    ------------   -----------------  -----------------  -----------------  -----------------
         O           -2.219579971539     0.457906931759    -0.456133827454    15.994914619570
         C            0.045797028461    -0.290882068241    -0.586447827454    12.000000000000
         C            1.312914028461    -0.748046068241     0.157192172546    12.000000000000
         C           -1.093714971539     0.055490931759     0.355832172546    12.000000000000
         C            2.256078028461     0.406814931759     0.511811172546    12.000000000000
         H            0.263679028461     0.578173931759    -1.211320827454     1.007825032230
         H           -0.311423971539    -1.078424068241    -1.253684827454     1.007825032230
         H            1.856407028461    -1.461161068241    -0.467907827454     1.007825032230
         H            1.034085028461    -1.293802068241     1.064801172546     1.007825032230
         H           -1.349428971539    -0.823454068241     0.960433172546     1.007825032230
         H           -0.796799971539     0.864646931759     1.035017172546     1.007825032230
         H            2.583532028461     0.923734931759    -0.392552827454     1.007825032230
         H            3.143046028461     0.049778931759     1.038435172546     1.007825032230
         H            1.762106028461     1.142255931759     1.151670172546     1.007825032230
         H           -2.976854971539     0.696677931759     0.094477172546     1.007825032230

  Charge       = 0
  Multiplicity = 1
  Basis Set: 6-311+G*
    Blend: 6-311+G*
  Basis Set: (6-311+G* AUX)
    Blend: HEAVY-AUG-CC-PVTZ-JKFIT

    Orbital Energies [Eh]
    ---------------------

    Doubly Occupied:

       1A    -19.245006     2A    -10.328042     3A    -10.279940
       4A    -10.273077     5A    -10.269579     6A     -1.116820
       7A     -0.896937     8A     -0.818717     9A     -0.730915
      10A     -0.671924    11A     -0.602305    12A     -0.563040
      13A     -0.540677    14A     -0.507293    15A     -0.478568
      16A     -0.470069    17A     -0.431076    18A     -0.420165
      19A     -0.414894    20A     -0.402054    21A     -0.360214

  @DF-RKS Final Energy:  -233.64448339420227

   => Energetics <=

    Nuclear Repulsion Energy =            186.1757466847155911
    One-Electron Energy =                -684.2812455963246521
    Two-Electron Energy =                 287.7084604951694473
    DFT Exchange-Correlation Energy =     -23.2402562365234431
    Empirical Dispersion Energy =          -0.0071887412391806
    VV10 Nonlocal Energy =                  0.0000000000000000
    Total Energy =                       -233.6444833942022399

  Dipole Moment: [D]
     X:     0.1344      Y:    -0.1537      Z:     1.7535     Total:     1.7654

*** Psi4 exiting successfully. Buy a developer a beer!
