                               Psi4 1.3.2 release

  ==> Input File <==

--------------------------------------------------------------------------
molecule {
0 1
 O   -2.257701    0.444732   -0.504453
 C    0.063128   -0.125821   -0.500791
 C    1.271764   -0.672059    0.291070
 C   -1.201553   -0.068727    0.337190
 C    2.430562    0.325868    0.378474
 H    0.271348    0.882872   -0.865850
 H   -0.142169   -0.737282   -1.381169
 H    1.627948   -1.599465   -0.163398
 H    0.959875   -0.939394    1.307156
 H   -1.451798   -1.072189    0.703792
 H   -1.042610    0.583245    1.205703
 H    2.791943    0.586885   -0.618448
 H    3.269257   -0.082132    0.946001
 H    2.109915    1.249500    0.866326
 H   -3.090272    0.508229   -0.018253
}
memory 700MB
set_num_threads(8)
psi4_io.set_default_path("/home/daniele/PSI4_sctatch/Psi4-1butanol_3D")
set freeze_core True
E, wfn = energy('wb97x-d/6-311+G*',return_wfn=True)
oeprop(wfn,"WIBERG_LOWDIN_INDICES")
clean()
--------------------------------------------------------------------------

    Molecular point group: c1

    Geometry (in Angstrom), charge = 0, multiplicity = 1:

       Center              X                  Y                   Z               Mass
    ------------   -----------------  -----------------  -----------------  -----------------
         O           -2.257701186760     0.444731973627    -0.504453019626    15.994914619570
         C            0.063127813240    -0.125821026373    -0.500791019626    12.000000000000
         C            1.271763813240    -0.672059026373     0.291069980374    12.000000000000
         C           -1.201553186760    -0.068727026373     0.337189980374    12.000000000000
         C            2.430561813240     0.325867973627     0.378473980374    12.000000000000
         H            0.271347813240     0.882871973627    -0.865850019626     1.007825032230
         H           -0.142169186760    -0.737282026373    -1.381169019626     1.007825032230
         H            1.627947813240    -1.599465026373    -0.163398019626     1.007825032230
         H            0.959874813240    -0.939394026373     1.307155980374     1.007825032230
         H           -1.451798186760    -1.072189026373     0.703791980374     1.007825032230
         H           -1.042610186760     0.583244973627     1.205702980374     1.007825032230
         H            2.791942813240     0.586884973627    -0.618448019626     1.007825032230
         H            3.269256813240    -0.082132026373     0.946000980374     1.007825032230
         H            2.109914813240     1.249499973627     0.866325980374     1.007825032230
         H           -3.090272186760     0.508228973627    -0.018253019626     1.007825032230

  Charge       = 0
  Multiplicity = 1
  Basis Set: 6-311+G*
    Blend: 6-311+G*
  Basis Set: (6-311+G* AUX)
    Blend: HEAVY-AUG-CC-PVTZ-JKFIT

    Orbital Energies [Eh]
    ---------------------

    Doubly Occupied:

       1A    -19.245207     2A    -10.328439     3A    -10.279854
       4A    -10.272739     5A    -10.269122     6A     -1.117111
       7A     -0.895681     8A     -0.820345     9A     -0.725861
      10A     -0.676147    11A     -0.601347    12A     -0.564803
      13A     -0.535985    14A     -0.510492    15A     -0.480585
      16A     -0.465212    17A     -0.430230    18A     -0.420569
      19A     -0.410806    20A     -0.404388    21A     -0.360709

  @DF-RKS Final Energy:  -233.64245289720645

   => Energetics <=

    Nuclear Repulsion Energy =            185.0544368355462552
    One-Electron Energy =                -682.0469571919306873
    Two-Electron Energy =                 286.5962083438961372
    DFT Exchange-Correlation Energy =     -23.2392001041534826
    Empirical Dispersion Energy =          -0.0069407805646856
    VV10 Nonlocal Energy =                  0.0000000000000000
    Total Energy =                       -233.6424528972064820

  Dipole Moment: [D]
     X:    -0.0819      Y:    -0.5363      Z:     1.7023     Total:     1.7867

*** Psi4 exiting successfully. Buy a developer a beer!
