                               Psi4 1.3.2 release

  ==> Input File <==

--------------------------------------------------------------------------
molecule {
0 1
 O   -2.301610    0.589772   -0.245560
 C    0.060309    0.113161   -0.320844
 C    1.242897   -0.358956    0.564672
 C   -1.331075   -0.385514    0.143019
 C    2.618394    0.151358    0.089011
 H    0.045501    1.211476   -0.325790
 H    0.209112   -0.194689   -1.363983
 H    1.261190   -1.456418    0.592890
 H    1.080740   -0.029424    1.599520
 H   -1.548118   -1.369038   -0.291816
 H   -1.345145   -0.513666    1.232669
 H    2.837515   -0.190709   -0.928192
 H    3.415918   -0.216008    0.743673
 H    2.658274    1.245928    0.095800
 H   -3.178828    0.281635    0.050352
}
set optking {
  frozen_dihedral = ("
    3 2 4 1
    2 4 1 15
    4 2 3 5
    12 5 3 2
  ")
}
set {
  geom_maxiter 400
  g_convergence GAU_LOOSE
  dynamic_level 1
}
memory 700MB
set_num_threads(8)
psi4_io.set_default_path("/home/daniele/PSI4_sctatch/Psi4-1butanol_3D")
for _ in range(1):
  try:
    set opt_coordinates both
    optimize('wb97x-d/6-311G')
    break
  except OptimizationConvergenceError:
    break
  else:
    try:
      set opt_coordinates cartesian
      optimize('wb97x-d/6-311G')
      break
    except OptimizationConvergenceError:
      pass
clean()
--------------------------------------------------------------------------

    Molecular point group: c1
  Charge       = 0
  Multiplicity = 1
  Basis Set: 6-311G
    Blend: 6-311G
  Basis Set: (6-311G AUX)
    Blend: CC-PVTZ-JKFIT
  @DF-RKS Final Energy:  -233.57853575988383
    Total Energy =                       -233.5785357598838345
    Molecular point group: c1
  Basis Set: 6-311G
    Blend: 6-311G
  Basis Set: (6-311G AUX)
    Blend: CC-PVTZ-JKFIT
  Basis Set: 6-311G
    Blend: 6-311G
  Basis Set: (6-311G AUX)
    Blend: CC-PVTZ-JKFIT
  @DF-RKS Final Energy:  -233.58017495164850
    Total Energy =                       -233.5801749516485017
  Basis Set: 6-311G
    Blend: 6-311G
  Basis Set: (6-311G AUX)
    Blend: CC-PVTZ-JKFIT
  Charge       = 0
  Multiplicity = 1
  Basis Set: 6-311G
    Blend: 6-311G
  Basis Set: (6-311G AUX)
    Blend: CC-PVTZ-JKFIT

    Orbital Energies [Eh]
    ---------------------

    Doubly Occupied:

       1A    -19.234446     2A    -10.329651     3A    -10.280137
       4A    -10.273680     5A    -10.268778     6A     -1.118857
       7A     -0.898606     8A     -0.822367     9A     -0.726215
      10A     -0.678357    11A     -0.598771    12A     -0.567739
      13A     -0.525503    14A     -0.518677    15A     -0.481055
      16A     -0.452104    17A     -0.435193    18A     -0.417623
      19A     -0.407413    20A     -0.399882    21A     -0.350758

  @DF-RKS Final Energy:  -233.58028778528484

   => Energetics <=

    Nuclear Repulsion Energy =            184.5137625670255659
    One-Electron Energy =                -680.9004676248231362
    Two-Electron Energy =                 286.0538053295975374
    DFT Exchange-Correlation Energy =     -23.2404988628920961
    Empirical Dispersion Energy =          -0.0068891941926895
    VV10 Nonlocal Energy =                  0.0000000000000000
    Total Energy =                       -233.5802877852848383

  Dipole Moment: [D]
     X:    -0.3583      Y:    -1.5676      Z:     0.9900     Total:     1.8884

    Molecular point group: c1
  Basis Set: 6-311G
    Blend: 6-311G
  Basis Set: (6-311G AUX)
    Blend: CC-PVTZ-JKFIT

  -Total Gradient:
     Atom            X                  Y                   Z
    ------   -----------------  -----------------  -----------------
       1        0.000842053456    -0.000249712505     0.002751644512
       2        0.001425688064    -0.002692551696    -0.001324260346
       3       -0.000814213473     0.002150015933     0.001138263154
       4       -0.001527606253     0.000304376199    -0.002973837898
       5        0.000265552072     0.000206532542     0.000067893718
       6        0.000006410643    -0.000199741483     0.000005850198
       7        0.000073343058     0.000046617454     0.000044540358
       8        0.000061248132     0.000020825608     0.000018507440
       9        0.000008921646     0.000030319430    -0.000199947093
      10       -0.000048643558    -0.000238109271    -0.000049205395
      11       -0.000216833526     0.000094837492     0.000098360705
      12       -0.000212741606     0.000149601612     0.000155628134
      13        0.000022538858    -0.000020005004     0.000048491285
      14       -0.000049797061    -0.000212326745     0.000002664189
      15        0.000115146470     0.000547882127     0.000213476620

  **** Optimization is complete! (in 3 steps) ****
    Final optimized geometry and variables:
    Molecular point group: c1

    Geometry (in Angstrom), charge = 0, multiplicity = 1:

    O           -2.278000184607     0.537727563990    -0.335591437840
    C            0.075724718430     0.073475519645    -0.367616300947
    C            1.216024154367    -0.377996635622     0.549768645147
    C           -1.288094356070    -0.429321787514     0.086978505510
    C            2.581373400320     0.135952721237     0.086813283526
    H            0.026397703753     1.165475831176    -0.363510998050
    H            0.272270641549    -0.230951212460    -1.398521035305
    H            1.237263165741    -1.472140545819     0.605371682765
    H            1.016635520447    -0.021133051118     1.565212523226
    H           -1.502484876934    -1.419191137426    -0.332538925833
    H           -1.296738458920    -0.514315038529     1.181223465362
    H            2.812919085758    -0.224041734167    -0.918157492494
    H            3.378901524661    -0.193460783856     0.755094399994
    H            2.594247953297     1.227787800950     0.058606251111
    H           -3.165380777313     0.266819183431    -0.064866035128

*** Psi4 exiting successfully. Buy a developer a beer!
