                               Psi4 1.3.2 release

  ==> Input File <==

--------------------------------------------------------------------------
molecule {
0 1
 O   -1.676525    0.198499    1.059572
 C    0.109178   -0.147385   -0.567029
 C    1.101228   -0.037054    0.628271
 C   -1.382224   -0.398391   -0.207410
 C    2.561582    0.215155    0.201607
 H    0.150263    0.789463   -1.138998
 H    0.433055   -0.935593   -1.259433
 H    1.054640   -0.957201    1.225398
 H    0.784612    0.773455    1.298089
 H   -2.033649   -0.006262   -0.998464
 H   -1.566276   -1.479672   -0.165608
 H    2.932782   -0.594674   -0.435330
 H    3.215492    0.277980    1.077773
 H    2.654521    1.155746   -0.351766
 H   -2.613599    0.024845    1.268750
}
set optking {
  frozen_dihedral = ("
    3 2 4 1
    2 4 1 15
    4 2 3 5
    12 5 3 2
  ")
}
set {
  geom_maxiter 400
  g_convergence GAU_LOOSE
  dynamic_level 1
}
memory 700MB
set_num_threads(8)
psi4_io.set_default_path("/home/daniele/PSI4_sctatch/Psi4-1butanol_3D")
for _ in range(1):
  try:
    set opt_coordinates both
    optimize('wb97x-d/6-311G')
    break
  except OptimizationConvergenceError:
    break
  else:
    try:
      set opt_coordinates cartesian
      optimize('wb97x-d/6-311G')
      break
    except OptimizationConvergenceError:
      pass
clean()
--------------------------------------------------------------------------

    Molecular point group: c1
  Charge       = 0
  Multiplicity = 1
  Basis Set: 6-311G
    Blend: 6-311G
  Basis Set: (6-311G AUX)
    Blend: CC-PVTZ-JKFIT
  @DF-RKS Final Energy:  -233.57663411848606
    Total Energy =                       -233.5766341184860266
    Molecular point group: c1
  Basis Set: 6-311G
    Blend: 6-311G
  Basis Set: (6-311G AUX)
    Blend: CC-PVTZ-JKFIT
  Basis Set: 6-311G
    Blend: 6-311G
  Basis Set: (6-311G AUX)
    Blend: CC-PVTZ-JKFIT
  @DF-RKS Final Energy:  -233.57854251962760
    Total Energy =                       -233.5785425196276037
  Basis Set: 6-311G
    Blend: 6-311G
  Basis Set: (6-311G AUX)
    Blend: CC-PVTZ-JKFIT
  Charge       = 0
  Multiplicity = 1
  Basis Set: 6-311G
    Blend: 6-311G
  Basis Set: (6-311G AUX)
    Blend: CC-PVTZ-JKFIT

    Orbital Energies [Eh]
    ---------------------

    Doubly Occupied:

       1A    -19.235835     2A    -10.331259     3A    -10.275909
       4A    -10.265126     5A    -10.261401     6A     -1.120715
       7A     -0.890214     8A     -0.819339     9A     -0.725686
      10A     -0.668253    11A     -0.600487    12A     -0.562617
      13A     -0.519490    14A     -0.516801    15A     -0.472745
      16A     -0.452378    17A     -0.433952    18A     -0.414386
      19A     -0.402600    20A     -0.389404    21A     -0.349732

  @DF-RKS Final Energy:  -233.57873239112342

   => Energetics <=

    Nuclear Repulsion Energy =            188.0975785387035444
    One-Electron Energy =                -688.2204078641212845
    Two-Electron Energy =                 289.7908370751837310
    DFT Exchange-Correlation Energy =     -23.2397836747213056
    Empirical Dispersion Energy =          -0.0069564661680844
    VV10 Nonlocal Energy =                  0.0000000000000000
    Total Energy =                       -233.5787323911233955

  Dipole Moment: [D]
     X:    -1.4185      Y:    -0.9744      Z:    -0.8472     Total:     1.9182

    Molecular point group: c1
  Basis Set: 6-311G
    Blend: 6-311G
  Basis Set: (6-311G AUX)
    Blend: CC-PVTZ-JKFIT

  -Total Gradient:
     Atom            X                  Y                   Z
    ------   -----------------  -----------------  -----------------
       1        0.000700978837    -0.004824612479     0.001046469155
       2        0.002612696863    -0.007483050104     0.001149093804
       3       -0.001155331631     0.004661198658    -0.000588755879
       4       -0.002420273416     0.007779515562    -0.002014509351
       5        0.000485020314    -0.000024295685    -0.000171302003
       6        0.000137531815    -0.000030276813     0.000008415114
       7        0.000018084686     0.000149538564     0.000142970914
       8        0.000023629380     0.000117493139    -0.000096300347
       9        0.000118556700    -0.000215767090    -0.000221422110
      10       -0.000177557126    -0.000041129599    -0.000180718876
      11       -0.000174892466    -0.000062313962     0.000261190846
      12       -0.000038237308     0.000151196656     0.000040929283
      13       -0.000071878390     0.000012857313     0.000058552092
      14       -0.000155310431    -0.000164068138     0.000100711286
      15        0.000166597443     0.000090029718     0.000346749959

  **** Optimization is complete! (in 3 steps) ****
    Final optimized geometry and variables:
    Molecular point group: c1

    Geometry (in Angstrom), charge = 0, multiplicity = 1:

    O           -1.744360274394     0.278817247133     0.773760037529
    C            0.042024611340    -0.174590250266    -0.810021569593
    C            0.959761594993     0.021140091448     0.400595615150
    C           -1.429407818228    -0.412083467556    -0.457730481866
    C            2.414111288598     0.257101674696    -0.016316812916
    H            0.124880668561     0.718546022478    -1.438568363067
    H            0.393616608567    -1.014142429712    -1.417225345094
    H            0.902294491819    -0.856719609718     1.051656276654
    H            0.591209252277     0.859541463331     0.989135839341
    H           -2.073628232130    -0.069723311679    -1.274617435977
    H           -1.600871735452    -1.486889575185    -0.317750834428
    H            2.805704203943    -0.588320092459    -0.588118909038
    H            3.055055426248     0.396715715194     0.856173448875
    H            2.501095860122     1.149688197458    -0.641207859769
    H           -2.667885401303     0.138717984924     1.019754508505

*** Psi4 exiting successfully. Buy a developer a beer!
