                               Psi4 1.3.2 release

  ==> Input File <==

--------------------------------------------------------------------------
molecule {
0 1
 O   -2.161505    0.203292   -0.693025
 C   -0.068349    0.656242    0.352459
 C    1.280930    0.157866    0.888674
 C   -0.947086   -0.434147   -0.232845
 C    2.176200   -0.516845   -0.156990
 H   -0.626777    1.147687    1.152044
 H    0.096810    1.406863   -0.425752
 H    1.102560   -0.542187    1.712604
 H    1.814027    1.007725    1.322180
 H   -0.443910   -0.927457   -1.071228
 H   -1.166296   -1.190223    0.532227
 H    1.699723   -1.393278   -0.599116
 H    3.120656   -0.837918    0.285037
 H    2.404636    0.175873   -0.970925
 H   -2.769617   -0.443607   -1.074521
}
memory 700MB
set_num_threads(8)
psi4_io.set_default_path("/home/daniele/PSI4_sctatch/Psi4-1butanol_3D")
set freeze_core True
E, wfn = energy('wb97x-d/6-311+G*',return_wfn=True)
oeprop(wfn,"WIBERG_LOWDIN_INDICES")
clean()
--------------------------------------------------------------------------

    Molecular point group: c1

    Geometry (in Angstrom), charge = 0, multiplicity = 1:

       Center              X                  Y                   Z               Mass
    ------------   -----------------  -----------------  -----------------  -----------------
         O           -2.161505042833     0.203291792817    -0.693024996994    15.994914619570
         C           -0.068349042833     0.656241792817     0.352459003006    12.000000000000
         C            1.280929957167     0.157865792817     0.888674003006    12.000000000000
         C           -0.947086042833    -0.434147207183    -0.232844996994    12.000000000000
         C            2.176199957167    -0.516845207183    -0.156989996994    12.000000000000
         H           -0.626777042833     1.147686792817     1.152044003006     1.007825032230
         H            0.096809957167     1.406862792817    -0.425751996994     1.007825032230
         H            1.102559957167    -0.542187207183     1.712604003006     1.007825032230
         H            1.814026957167     1.007724792817     1.322180003006     1.007825032230
         H           -0.443910042833    -0.927457207183    -1.071227996994     1.007825032230
         H           -1.166296042833    -1.190223207183     0.532227003006     1.007825032230
         H            1.699722957167    -1.393278207183    -0.599115996994     1.007825032230
         H            3.120655957167    -0.837918207183     0.285037003006     1.007825032230
         H            2.404635957167     0.175872792817    -0.970924996994     1.007825032230
         H           -2.769617042833    -0.443607207183    -1.074520996994     1.007825032230

  Charge       = 0
  Multiplicity = 1
  Basis Set: 6-311+G*
    Blend: 6-311+G*
  Basis Set: (6-311+G* AUX)
    Blend: HEAVY-AUG-CC-PVTZ-JKFIT

    Orbital Energies [Eh]
    ---------------------

    Doubly Occupied:

       1A    -19.244681     2A    -10.327281     3A    -10.280095
       4A    -10.273249     5A    -10.270295     6A     -1.116232
       7A     -0.897177     8A     -0.817368     9A     -0.737436
      10A     -0.665458    11A     -0.603158    12A     -0.565776
      13A     -0.537415    14A     -0.507084    15A     -0.485281
      16A     -0.464204    17A     -0.437408    18A     -0.420208
      19A     -0.412098    20A     -0.401109    21A     -0.359921

  @DF-RKS Final Energy:  -233.64571622096244

   => Energetics <=

    Nuclear Repulsion Energy =            187.0933050758395950
    One-Electron Energy =                -686.1145237851172851
    Two-Electron Energy =                 288.6243691370286797
    DFT Exchange-Correlation Energy =     -23.2415187646534349
    Empirical Dispersion Energy =          -0.0073478840599605
    VV10 Nonlocal Energy =                  0.0000000000000000
    Total Energy =                       -233.6457162209624414

  Dipole Moment: [D]
     X:     0.4851      Y:    -1.6932      Z:    -0.0159     Total:     1.7614

*** Psi4 exiting successfully. Buy a developer a beer!
