                               Psi4 1.3.2 release

  ==> Input File <==

--------------------------------------------------------------------------
molecule {
0 1
 O   -2.237627    0.416319   -0.462212
 C    0.043071   -0.326933   -0.598833
 C    1.342250   -0.783357    0.119711
 C   -1.125239    0.028534    0.347249
 C    2.307437    0.368674    0.465460
 H    0.243919    0.521699   -1.265508
 H   -0.306241   -1.140322   -1.249343
 H    1.877456   -1.483196   -0.536487
 H    1.101043   -1.359035    1.022702
 H   -1.380806   -0.833461    0.976466
 H   -0.830777    0.842249    1.021726
 H    2.627641    0.902282   -0.436005
 H    3.205388   -0.014294    0.962013
 H    1.835996    1.091648    1.139644
 H   -2.978437    0.648102    0.128838
}
set optking {
  frozen_dihedral = ("
    4 2 3 5
    2 4 1 15
    3 2 4 1
    12 5 3 2
  ")
}
set {
  geom_maxiter 400
  g_convergence GAU_LOOSE
  dynamic_level 1
}
memory 700MB
set_num_threads(8)
psi4_io.set_default_path("/home/daniele/PSI4_sctatch/Psi4-1butanol_3D")
for _ in range(1):
  try:
    set opt_coordinates both
    optimize('wb97x-d/6-311G')
    break
  except OptimizationConvergenceError:
    break
  else:
    try:
      set opt_coordinates cartesian
      optimize('wb97x-d/6-311G')
      break
    except OptimizationConvergenceError:
      pass
clean()
--------------------------------------------------------------------------

    Molecular point group: c1
  Charge       = 0
  Multiplicity = 1
  Basis Set: 6-311G
    Blend: 6-311G
  Basis Set: (6-311G AUX)
    Blend: CC-PVTZ-JKFIT
  @DF-RKS Final Energy:  -233.57867720763949
    Total Energy =                       -233.5786772076395152
    Molecular point group: c1
  Basis Set: 6-311G
    Blend: 6-311G
  Basis Set: (6-311G AUX)
    Blend: CC-PVTZ-JKFIT
  Basis Set: 6-311G
    Blend: 6-311G
  Basis Set: (6-311G AUX)
    Blend: CC-PVTZ-JKFIT
  @DF-RKS Final Energy:  -233.58019196772992
    Total Energy =                       -233.5801919677298883
  Basis Set: 6-311G
    Blend: 6-311G
  Basis Set: (6-311G AUX)
    Blend: CC-PVTZ-JKFIT
  Charge       = 0
  Multiplicity = 1
  Basis Set: 6-311G
    Blend: 6-311G
  Basis Set: (6-311G AUX)
    Blend: CC-PVTZ-JKFIT

    Orbital Energies [Eh]
    ---------------------

    Doubly Occupied:

       1A    -19.234855     2A    -10.329589     3A    -10.280948
       4A    -10.273814     5A    -10.269982     6A     -1.119540
       7A     -0.898893     8A     -0.820865     9A     -0.732975
      10A     -0.673528    11A     -0.598872    12A     -0.563928
      13A     -0.540800    14A     -0.507291    15A     -0.476466
      16A     -0.469391    17A     -0.424044    18A     -0.418892
      19A     -0.412642    20A     -0.396716    21A     -0.351598

  @DF-RKS Final Energy:  -233.58029036792328

   => Energetics <=

    Nuclear Repulsion Energy =            186.1757365413859588
    One-Electron Energy =                -684.2042623256263596
    Two-Electron Energy =                 287.6959857240332212
    DFT Exchange-Correlation Energy =     -23.2405615662791547
    Empirical Dispersion Energy =          -0.0071887414369709
    VV10 Nonlocal Energy =                  0.0000000000000000
    Total Energy =                       -233.5802903679233111

  Dipole Moment: [D]
     X:     0.0408      Y:    -0.1037      Z:     1.8727     Total:     1.8760

    Molecular point group: c1
  Basis Set: 6-311G
    Blend: 6-311G
  Basis Set: (6-311G AUX)
    Blend: CC-PVTZ-JKFIT

  -Total Gradient:
     Atom            X                  Y                   Z
    ------   -----------------  -----------------  -----------------
       1        0.000658145218    -0.000756419354     0.001129298149
       2        0.002158263406     0.002904505524    -0.000858410653
       3       -0.002366894298    -0.000501522975     0.002726926904
       4       -0.001283988679    -0.001368714626    -0.000853559294
       5        0.001460177729    -0.000442879747    -0.001927768905
       6       -0.000013496119    -0.000063010618     0.000127494655
       7       -0.000009108443    -0.000036308082    -0.000067106784
       8       -0.000030626462     0.000069962838    -0.000058663521
       9        0.000004485812     0.000150466574    -0.000065989916
      10       -0.000128716629    -0.000062407374     0.000077276544
      11       -0.000120148951     0.000170726703     0.000160824640
      12       -0.000400915071     0.000056390751     0.000121091991
      13       -0.000010261999    -0.000046147419    -0.000016824309
      14        0.000084927862    -0.000109444683    -0.000068578023
      15        0.000042452671    -0.000005626262    -0.000269672410

  **** Optimization is complete! (in 3 steps) ****
    Final optimized geometry and variables:
    Molecular point group: c1

    Geometry (in Angstrom), charge = 0, multiplicity = 1:

    O           -2.219579823358     0.457907347570    -0.456133686143
    C            0.045797291416    -0.290882058253    -0.586447614441
    C            1.312913790753    -0.748046324776     0.157192304876
    C           -1.093715343030     0.055490577518     0.355832267357
    C            2.256078165022     0.406814886771     0.511810713100
    H            0.263678918451     0.578174418448    -1.211321036717
    H           -0.311424442877    -1.078423911535    -1.253685112189
    H            1.856407219269    -1.461161317912    -0.467908388440
    H            1.034085431847    -1.293802422915     1.064800774777
    H           -1.349429040802    -0.823454298313     0.960432779684
    H           -0.796799527339     0.864647467734     1.035016917015
    H            2.583532186863     0.923735312476    -0.392553018337
    H            3.143046151091     0.049778625720     1.038435090345
    H            1.762105598530     1.142256298764     1.151670473682
    H           -2.976855065540     0.696678235000     0.094477232666

*** Psi4 exiting successfully. Buy a developer a beer!
