                               Psi4 1.3.2 release

  ==> Input File <==

--------------------------------------------------------------------------
molecule {
0 1
 O   -2.195158    0.414771   -0.374668
 C   -0.032960   -0.551602   -0.584789
 C    1.405850   -0.766583   -0.065336
 C   -0.901236    0.354422    0.269568
 C    2.016571    0.401565    0.720003
 H   -0.004581   -0.102915   -1.581805
 H   -0.541270   -1.510708   -0.694004
 H    2.050683   -1.013895   -0.911101
 H    1.417011   -1.645542    0.587601
 H   -0.993569   -0.047172    1.287694
 H   -0.461674    1.355131    0.332502
 H    2.065597    1.311047    0.115936
 H    3.035255    0.158435    1.027566
 H    1.447145    0.623092    1.624065
 H   -2.802713    0.983805    0.116074
}
memory 700MB
set_num_threads(8)
psi4_io.set_default_path("/home/daniele/PSI4_sctatch/Psi4-1butanol_3D")
set freeze_core True
E, wfn = energy('wb97x-d/6-311+G*',return_wfn=True)
oeprop(wfn,"WIBERG_LOWDIN_INDICES")
clean()
--------------------------------------------------------------------------

    Molecular point group: c1

    Geometry (in Angstrom), charge = 0, multiplicity = 1:

       Center              X                  Y                   Z               Mass
    ------------   -----------------  -----------------  -----------------  -----------------
         O           -2.195158032047     0.414771006944    -0.374668004351    15.994914619570
         C           -0.032960032047    -0.551601993056    -0.584789004351    12.000000000000
         C            1.405849967953    -0.766582993056    -0.065336004351    12.000000000000
         C           -0.901236032047     0.354422006944     0.269567995649    12.000000000000
         C            2.016570967953     0.401565006944     0.720002995649    12.000000000000
         H           -0.004581032047    -0.102914993056    -1.581805004351     1.007825032230
         H           -0.541270032047    -1.510707993056    -0.694004004351     1.007825032230
         H            2.050682967953    -1.013894993056    -0.911101004351     1.007825032230
         H            1.417010967953    -1.645541993056     0.587600995649     1.007825032230
         H           -0.993569032047    -0.047171993056     1.287693995649     1.007825032230
         H           -0.461674032047     1.355131006944     0.332501995649     1.007825032230
         H            2.065596967953     1.311047006944     0.115935995649     1.007825032230
         H            3.035254967953     0.158435006944     1.027565995649     1.007825032230
         H            1.447144967953     0.623092006944     1.624064995649     1.007825032230
         H           -2.802713032047     0.983805006944     0.116073995649     1.007825032230

  Charge       = 0
  Multiplicity = 1
  Basis Set: 6-311+G*
    Blend: 6-311+G*
  Basis Set: (6-311+G* AUX)
    Blend: HEAVY-AUG-CC-PVTZ-JKFIT

    Orbital Energies [Eh]
    ---------------------

    Doubly Occupied:

       1A    -19.244579     2A    -10.327216     3A    -10.279946
       4A    -10.272725     5A    -10.271540     6A     -1.116145
       7A     -0.895425     8A     -0.816614     9A     -0.740853
      10A     -0.660670    11A     -0.604372    12A     -0.569256
      13A     -0.528779    14A     -0.510013    15A     -0.487058
      16A     -0.461753    17A     -0.443565    18A     -0.420642
      19A     -0.405546    20A     -0.399705    21A     -0.359937

  @DF-RKS Final Energy:  -233.64259801621773

   => Energetics <=

    Nuclear Repulsion Energy =            187.5110044280826003
    One-Electron Energy =                -686.9570553876558279
    Two-Electron Energy =                 289.0516633181518955
    DFT Exchange-Correlation Energy =     -23.2407729531445035
    Empirical Dispersion Energy =          -0.0074374216518865
    VV10 Nonlocal Energy =                  0.0000000000000000
    Total Energy =                       -233.6425980162177041

  Dipole Moment: [D]
     X:     0.5978      Y:     0.7749      Z:     1.4768     Total:     1.7717

*** Psi4 exiting successfully. Buy a developer a beer!
