                               Psi4 1.3.2 release

  ==> Input File <==

--------------------------------------------------------------------------
molecule {
0 1
 C    0.744380    0.049716   -0.027649
 C   -0.744371   -0.049827    0.027704
 C    1.389533    0.855463   -0.979019
 C   -1.400382   -0.606426    1.136940
 C    1.559534   -0.658301    0.869454
 C   -1.548680    0.409276   -1.027222
 C    2.776679    0.947675   -1.032831
 C   -2.787425   -0.701250    1.188962
 C    2.946778   -0.565098    0.819934
 C   -2.936040    0.318746   -0.976142
 C    3.567097    0.238396   -0.132744
 C   -3.567102   -0.238383    0.132622
 H    0.811115    1.439029   -1.679550
 H   -0.832169   -0.955539    1.986126
 H    1.117261   -1.310020    1.608046
 H   -1.096201    0.826588   -1.914336
 H    3.239013    1.580899   -1.777267
 H   -3.258550   -1.132990    2.061061
 H    3.543005   -1.127545    1.524972
 H   -3.523480    0.679754   -1.808907
 H    4.645533    0.310426   -0.172938
 H   -4.645540   -0.310447    0.172701
}
memory 700MB
set_num_threads(3)
psi4_io.set_default_path("/home/daniele/PSI4_sctatch/Psi4-biphenyl")
set freeze_core True
E, wfn = energy('wb97x-d/6-311+G*',return_wfn=True)
oeprop(wfn,"WIBERG_LOWDIN_INDICES")
clean()
--------------------------------------------------------------------------

    Molecular point group: c1

    Geometry (in Angstrom), charge = 0, multiplicity = 1:

       Center              X                  Y                   Z               Mass
    ------------   -----------------  -----------------  -----------------  -----------------
         C            0.744380007150     0.049715998618    -0.027649099171    12.000000000000
         C           -0.744370992850    -0.049827001382     0.027703900829    12.000000000000
         C            1.389533007150     0.855462998618    -0.979019099171    12.000000000000
         C           -1.400381992850    -0.606426001382     1.136939900829    12.000000000000
         C            1.559534007150    -0.658301001382     0.869453900829    12.000000000000
         C           -1.548679992850     0.409275998618    -1.027222099171    12.000000000000
         C            2.776679007150     0.947674998618    -1.032831099171    12.000000000000
         C           -2.787424992850    -0.701250001382     1.188961900829    12.000000000000
         C            2.946778007150    -0.565098001382     0.819933900829    12.000000000000
         C           -2.936039992850     0.318745998618    -0.976142099171    12.000000000000
         C            3.567097007150     0.238395998618    -0.132744099171    12.000000000000
         C           -3.567101992850    -0.238383001382     0.132621900829    12.000000000000
         H            0.811115007150     1.439028998618    -1.679550099171     1.007825032230
         H           -0.832168992850    -0.955539001382     1.986125900829     1.007825032230
         H            1.117261007150    -1.310020001382     1.608045900829     1.007825032230
         H           -1.096200992850     0.826587998618    -1.914336099171     1.007825032230
         H            3.239013007150     1.580898998618    -1.777267099171     1.007825032230
         H           -3.258549992850    -1.132990001382     2.061060900829     1.007825032230
         H            3.543005007150    -1.127545001382     1.524971900829     1.007825032230
         H           -3.523479992850     0.679753998618    -1.808907099171     1.007825032230
         H            4.645533007150     0.310425998618    -0.172938099171     1.007825032230
         H           -4.645539992850    -0.310447001382     0.172700900829     1.007825032230

  Charge       = 0
  Multiplicity = 1
  Basis Set: 6-311+G*
    Blend: 6-311+G*
  Basis Set: (6-311+G* AUX)
    Blend: HEAVY-AUG-CC-PVTZ-JKFIT

    Orbital Energies [Eh]
    ---------------------

    Doubly Occupied:

       1A    -10.306741     2A    -10.306462     3A    -10.292077
       4A    -10.292068     5A    -10.292017     6A    -10.292014
       7A    -10.291498     8A    -10.291490     9A    -10.291410
      10A    -10.291407    11A    -10.290725    12A    -10.290725
      13A     -0.977255    14A     -0.955356    15A     -0.883397
      16A     -0.857168    17A     -0.847323    18A     -0.825909
      19A     -0.726129    20A     -0.722117    21A     -0.686075
      22A     -0.678138    23A     -0.633927    24A     -0.593706
      25A     -0.569884    26A     -0.559239    27A     -0.532017
      28A     -0.521473    29A     -0.520302    30A     -0.514807
      31A     -0.503060    32A     -0.479604    33A     -0.451913
      34A     -0.451576    35A     -0.443260    36A     -0.426301
      37A     -0.415782    38A     -0.368138    39A     -0.337091
      40A     -0.331991    41A     -0.298739

  @DF-RKS Final Energy:  -463.23096761220734

   => Energetics <=

    Nuclear Repulsion Energy =            599.3600976843033550
    One-Electron Energy =               -1811.8315243585648204
    Two-Electron Energy =                 796.5016943699781677
    DFT Exchange-Correlation Energy =     -47.2493355410943394
    Empirical Dispersion Energy =          -0.0118997668297841
    VV10 Nonlocal Energy =                  0.0000000000000000
    Total Energy =                       -463.2309676122074507

  Dipole Moment: [D]
     X:    -0.0000      Y:     0.0000      Z:    -0.0001     Total:     0.0001

*** Psi4 exiting successfully. Buy a developer a beer!
