                               Psi4 1.3.2 release

  ==> Input File <==

--------------------------------------------------------------------------
molecule {
0 1
 C    0.745973    0.049943   -0.027664
 C   -0.745973   -0.049928    0.027684
 C    1.441374    1.023998    0.706047
 C   -1.528549    0.983530    0.566433
 C    1.508762   -0.826472   -0.815545
 C   -1.421588   -1.181033   -0.456918
 C    2.828480    1.118094    0.655311
 C   -2.915757    0.891865    0.618703
 C    2.895972   -0.734829   -0.867829
 C   -2.808695   -1.275145   -0.406205
 C    3.565690    0.238727   -0.132376
 C   -3.565689   -0.238748    0.132362
 H    0.906091    1.703142    1.352902
 H   -1.062086    1.889387    0.924234
 H    1.022351   -1.574006   -1.424467
 H   -0.866359   -2.018478   -0.852639
 H    3.332813    1.875944    1.239570
 H   -3.488542    1.710305    1.033575
 H    3.452172   -1.421668   -1.491479
 H   -3.296444   -2.164609   -0.781706
 H    4.643795    0.310905   -0.172412
 H   -4.643794   -0.310938    0.172382
}
memory 700MB
set_num_threads(3)
psi4_io.set_default_path("/home/daniele/PSI4_sctatch/Psi4-biphenyl")
set freeze_core True
E, wfn = energy('wb97x-d/6-311+G*',return_wfn=True)
oeprop(wfn,"WIBERG_LOWDIN_INDICES")
clean()
--------------------------------------------------------------------------

    Molecular point group: c1

    Geometry (in Angstrom), charge = 0, multiplicity = 1:

       Center              X                  Y                   Z               Mass
    ------------   -----------------  -----------------  -----------------  -----------------
         C            0.745973019623     0.049942948891    -0.027663972008    12.000000000000
         C           -0.745972980377    -0.049928051109     0.027684027992    12.000000000000
         C            1.441374019623     1.023997948891     0.706047027992    12.000000000000
         C           -1.528548980377     0.983529948891     0.566433027992    12.000000000000
         C            1.508762019623    -0.826472051109    -0.815544972008    12.000000000000
         C           -1.421587980377    -1.181033051109    -0.456917972008    12.000000000000
         C            2.828480019623     1.118093948891     0.655311027992    12.000000000000
         C           -2.915756980377     0.891864948891     0.618703027992    12.000000000000
         C            2.895972019623    -0.734829051109    -0.867828972008    12.000000000000
         C           -2.808694980377    -1.275145051109    -0.406204972008    12.000000000000
         C            3.565690019623     0.238726948891    -0.132375972008    12.000000000000
         C           -3.565688980377    -0.238748051109     0.132362027992    12.000000000000
         H            0.906091019623     1.703141948891     1.352902027992     1.007825032230
         H           -1.062085980377     1.889386948891     0.924234027992     1.007825032230
         H            1.022351019623    -1.574006051109    -1.424466972008     1.007825032230
         H           -0.866358980377    -2.018478051109    -0.852638972008     1.007825032230
         H            3.332813019623     1.875943948891     1.239570027992     1.007825032230
         H           -3.488541980377     1.710304948891     1.033575027992     1.007825032230
         H            3.452172019623    -1.421668051109    -1.491478972008     1.007825032230
         H           -3.296443980377    -2.164609051109    -0.781705972008     1.007825032230
         H            4.643795019623     0.310904948891    -0.172411972008     1.007825032230
         H           -4.643793980377    -0.310938051109     0.172382027992     1.007825032230

  Charge       = 0
  Multiplicity = 1
  Basis Set: 6-311+G*
    Blend: 6-311+G*
  Basis Set: (6-311+G* AUX)
    Blend: HEAVY-AUG-CC-PVTZ-JKFIT

    Orbital Energies [Eh]
    ---------------------

    Doubly Occupied:

       1A    -10.306914     2A    -10.306640     3A    -10.292107
       4A    -10.292097     5A    -10.292057     6A    -10.292054
       7A    -10.291515     8A    -10.291507     9A    -10.291444
      10A    -10.291441    11A    -10.290598    12A    -10.290597
      13A     -0.977095    14A     -0.955409    15A     -0.883074
      16A     -0.857207    17A     -0.847431    18A     -0.825839
      19A     -0.725798    20A     -0.722019    21A     -0.686177
      22A     -0.678080    23A     -0.633770    24A     -0.593665
      25A     -0.569580    26A     -0.559135    27A     -0.532071
      28A     -0.521627    29A     -0.520414    30A     -0.514347
      31A     -0.503436    32A     -0.479253    33A     -0.452024
      34A     -0.451318    35A     -0.443336    36A     -0.425798
      37A     -0.416087    38A     -0.367968    39A     -0.337116
      40A     -0.332111    41A     -0.298821

  @DF-RKS Final Energy:  -463.23098169550150

   => Energetics <=

    Nuclear Repulsion Energy =            599.2700427639197187
    One-Electron Energy =               -1811.6548428515159230
    Two-Electron Energy =                 796.4137556765221007
    DFT Exchange-Correlation Energy =     -47.2480364251007643
    Empirical Dispersion Energy =          -0.0119008593266115
    VV10 Nonlocal Energy =                  0.0000000000000000
    Total Energy =                       -463.2309816955014412

  Dipole Moment: [D]
     X:    -0.0000      Y:     0.0000      Z:     0.0000     Total:     0.0000

*** Psi4 exiting successfully. Buy a developer a beer!
