                               Psi4 1.3.2 release

  ==> Input File <==

--------------------------------------------------------------------------
molecule {
0 1
 C    0.739299    0.049592   -0.027742
 C   -0.739409   -0.049355    0.027202
 C    1.451619   -0.336771   -1.204770
 C   -1.380023   -1.320473    0.153706
 C    1.478999    0.533130    1.095284
 C   -1.550832    1.124715   -0.045278
 C    2.855810   -0.239913   -1.248522
 C   -2.784720   -1.405340    0.204992
 C    2.882961    0.623942    1.034595
 C   -2.954249    1.021941    0.007832
 C    3.569579    0.238781   -0.132982
 C   -3.569683   -0.238489    0.132471
 H    0.909332   -0.707424   -2.073117
 H   -0.782468   -2.228817    0.211356
 H    0.958022    0.832837    2.003123
 H   -1.085134    2.104066   -0.142574
 H    3.391432   -0.536117   -2.148755
 H   -3.265556   -2.377199    0.301457
 H    3.439626    0.993208    1.894152
 H   -3.565709    1.920838   -0.048053
 H    4.654984    0.311273   -0.173364
 H   -4.655088   -0.310989    0.172889
}
set optking {
  frozen_dihedral = ("
    3 1 2 4
    3 1 2 6
    5 1 2 4
    5 1 2 6
  ")
}
set {
  geom_maxiter 400
  g_convergence GAU_LOOSE
  dynamic_level 1
}
memory 700MB
set_num_threads(3)
psi4_io.set_default_path("/home/daniele/PSI4_sctatch/Psi4-biphenyl")
for _ in range(1):
  try:
    set opt_coordinates both
    optimize('wb97x-d/6-311G')
    break
  except OptimizationConvergenceError:
    break
  else:
    try:
      set opt_coordinates cartesian
      optimize('wb97x-d/6-311G')
      break
    except OptimizationConvergenceError:
      pass
clean()
--------------------------------------------------------------------------

    Molecular point group: c1
  Charge       = 0
  Multiplicity = 1
  Basis Set: 6-311G
    Blend: 6-311G
  Basis Set: (6-311G AUX)
    Blend: CC-PVTZ-JKFIT
  @DF-RKS Final Energy:  -463.12294527562631
    Total Energy =                       -463.1229452756262503
    Molecular point group: c1
  Basis Set: 6-311G
    Blend: 6-311G
  Basis Set: (6-311G AUX)
    Blend: CC-PVTZ-JKFIT
  Basis Set: 6-311G
    Blend: 6-311G
  Basis Set: (6-311G AUX)
    Blend: CC-PVTZ-JKFIT
  @DF-RKS Final Energy:  -463.12798940189862
    Total Energy =                       -463.1279894018986738
  Basis Set: 6-311G
    Blend: 6-311G
  Basis Set: (6-311G AUX)
    Blend: CC-PVTZ-JKFIT
  Charge       = 0
  Multiplicity = 1
  Basis Set: 6-311G
    Blend: 6-311G
  Basis Set: (6-311G AUX)
    Blend: CC-PVTZ-JKFIT

    Orbital Energies [Eh]
    ---------------------

    Doubly Occupied:

       1A    -10.304645     2A    -10.304363     3A    -10.293171
       4A    -10.293167     5A    -10.293037     6A    -10.293037
       7A    -10.292085     8A    -10.292084     9A    -10.291972
      10A    -10.291971    11A    -10.291883    12A    -10.291882
      13A     -0.980298    14A     -0.958920    15A     -0.884722
      16A     -0.854684    17A     -0.852142    18A     -0.828153
      19A     -0.724608    20A     -0.711320    21A     -0.701707
      22A     -0.677874    23A     -0.629926    24A     -0.599809
      25A     -0.557140    26A     -0.554410    27A     -0.545319
      28A     -0.536954    29A     -0.514814    30A     -0.513808
      31A     -0.511844    32A     -0.463211    33A     -0.457370
      34A     -0.456815    35A     -0.431705    36A     -0.427569
      37A     -0.417309    38A     -0.338764    39A     -0.336640
      40A     -0.330684    41A     -0.319319

  @DF-RKS Final Energy:  -463.12805802924527

   => Energetics <=

    Nuclear Repulsion Energy =            599.3358678508259345
    One-Electron Energy =               -1811.5678871566442467
    Two-Electron Energy =                 796.3472388415741534
    DFT Exchange-Correlation Energy =     -47.2313348323076525
    Empirical Dispersion Energy =          -0.0119427326935227
    VV10 Nonlocal Energy =                  0.0000000000000000
    Total Energy =                       -463.1280580292453237

  Dipole Moment: [D]
     X:     0.0000      Y:     0.0000      Z:     0.0000     Total:     0.0001

    Molecular point group: c1
  Basis Set: 6-311G
    Blend: 6-311G
  Basis Set: (6-311G AUX)
    Blend: CC-PVTZ-JKFIT

  -Total Gradient:
     Atom            X                  Y                   Z
    ------   -----------------  -----------------  -----------------
       1       -0.000784755892    -0.000053775379     0.000031754961
       2        0.000784972448     0.000050570372    -0.000035471834
       3        0.000257832322     0.001062086387    -0.000548792430
       4       -0.000301043023    -0.000059285141     0.001184204798
       5        0.000436774889    -0.001013482493     0.000522383544
       6       -0.000394735268     0.000015015736    -0.001155425632
       7       -0.000139629801    -0.000061001501    -0.000114534964
       8        0.000148336888    -0.000119447585    -0.000000324552
       9       -0.000139344041     0.000041708762     0.000124540702
      10        0.000131467919     0.000139241723    -0.000009773340
      11        0.000129256620     0.000009265238    -0.000004049577
      12       -0.000129353478    -0.000010049598     0.000005032505
      13        0.000013093640     0.000008589848    -0.000008684400
      14       -0.000013859214    -0.000005047433     0.000011505037
      15        0.000015375973    -0.000007236867     0.000007944666
      16       -0.000014387638     0.000002935466    -0.000009949775
      17       -0.000021580232    -0.000005542811    -0.000023360835
      18        0.000022125247    -0.000022219184     0.000005819448
      19       -0.000019578869     0.000002725849     0.000024761274
      20        0.000018875934     0.000025009904    -0.000007379850
      21       -0.000050238721    -0.000003400470     0.000001799141
      22        0.000050394143     0.000003351295    -0.000002004965

  **** Optimization is complete! (in 3 steps) ****
    Final optimized geometry and variables:
    Molecular point group: c1

    Geometry (in Angstrom), charge = 0, multiplicity = 1:

    C            0.743072332342     0.049653649996    -0.027645663776
    C           -0.743071390314    -0.049695592986     0.027593556981
    C            1.439457196606    -0.329093149478    -1.180958618858
    C           -1.369147009228    -1.295168404510     0.151505435969
    C            1.466246435998     0.523326738783     1.072893382474
    C           -1.536556093990     1.100899192677    -0.043476707269
    C            2.828435624716    -0.237459339779    -1.232423143187
    C           -2.758056628650    -1.388379084311     0.201986673042
    C            2.855045998123     0.617430118744     1.021091398796
    C           -2.925425456017     1.008444152462     0.009386446463
    C            3.539625614533     0.236652729923    -0.131610148172
    C           -3.539626781210    -0.236615978484     0.131647811633
    H            0.885673814813    -0.692383405209    -2.036810654927
    H           -0.760980781202    -2.188324040062     0.211041978625
    H            0.933875180145     0.813983756107     1.969128383675
    H           -1.058563744283     2.066651627751    -0.143395350862
    H            3.353403283924    -0.532918026577    -2.130974283549
    H           -3.228274478552    -2.357807132185     0.298872212983
    H            3.401046636158     0.984499709206     1.879826057439
    H           -3.526176263595     1.906290496011    -0.047641696946
    H            4.617993009735     0.308760345432    -0.171698965012
    H           -4.617994786687    -0.308694189694     0.171766337238

*** Psi4 exiting successfully. Buy a developer a beer!
