                               Psi4 1.3.2 release

  ==> Input File <==

--------------------------------------------------------------------------
molecule {
0 1
 C    0.757271    0.050765   -0.028393
 C   -0.757367   -0.050521    0.027964
 C    1.420370    0.876469   -1.003254
 C   -1.431574   -0.620949    1.164569
 C    1.594511   -0.674593    0.890763
 C   -1.583532    0.419777   -1.052913
 C    2.825829    0.962444   -1.047696
 C   -2.836878   -0.711099    1.206168
 C    2.998385   -0.572830    0.830474
 C   -2.987541    0.322123   -0.990212
 C    3.613010    0.241599   -0.134709
 C   -3.613129   -0.241344    0.134079
 H    0.857631    1.464670   -1.723410
 H   -0.878582   -0.986871    2.025714
 H    1.169906   -1.328674    1.647751
 H   -1.149157    0.851531   -1.950730
 H    3.305882    1.594212   -1.793240
 H   -3.325650   -1.145573    2.076740
 H    3.612097   -1.131475    1.535284
 H   -3.592565    0.683465   -1.820134
 H    4.698363    0.314084   -0.175274
 H   -4.698481   -0.313770    0.174355
}
set optking {
  frozen_dihedral = ("
    3 1 2 4
    3 1 2 6
    5 1 2 4
    5 1 2 6
  ")
}
set {
  geom_maxiter 400
  g_convergence GAU_LOOSE
  dynamic_level 1
}
memory 700MB
set_num_threads(3)
psi4_io.set_default_path("/home/daniele/PSI4_sctatch/Psi4-biphenyl")
for _ in range(1):
  try:
    set opt_coordinates both
    optimize('wb97x-d/6-311G')
    break
  except OptimizationConvergenceError:
    break
  else:
    try:
      set opt_coordinates cartesian
      optimize('wb97x-d/6-311G')
      break
    except OptimizationConvergenceError:
      pass
clean()
--------------------------------------------------------------------------

    Molecular point group: c1
  Charge       = 0
  Multiplicity = 1
  Basis Set: 6-311G
    Blend: 6-311G
  Basis Set: (6-311G AUX)
    Blend: CC-PVTZ-JKFIT
  @DF-RKS Final Energy:  -463.11983993214784
    Total Energy =                       -463.1198399321477837
    Molecular point group: c1
  Basis Set: 6-311G
    Blend: 6-311G
  Basis Set: (6-311G AUX)
    Blend: CC-PVTZ-JKFIT
  Basis Set: 6-311G
    Blend: 6-311G
  Basis Set: (6-311G AUX)
    Blend: CC-PVTZ-JKFIT
  @DF-RKS Final Energy:  -463.11983994182935
    Total Energy =                       -463.1198399418293548
  Basis Set: 6-311G
    Blend: 6-311G
  Basis Set: (6-311G AUX)
    Blend: CC-PVTZ-JKFIT
  Basis Set: 6-311G
    Blend: 6-311G
  @DF-RKS Final Energy:  -463.11983993938998
    Total Energy =                       -463.1198399393899763
  @DF-RKS Final Energy:  -463.12291294694103
    Total Energy =                       -463.1229129469410282
  @DF-RKS Final Energy:  -463.12483349976822
    Total Energy =                       -463.1248334997681582
  @DF-RKS Final Energy:  -463.12590112711985
    Total Energy =                       -463.1259011271197892
  @DF-RKS Final Energy:  -463.12649018698141
    Total Energy =                       -463.1264901869813571
  Basis Set: (6-311G AUX)
    Blend: CC-PVTZ-JKFIT
  Basis Set: 6-311G
    Blend: 6-311G
  Basis Set: (6-311G AUX)
    Blend: CC-PVTZ-JKFIT
  @DF-RKS Final Energy:  -463.12686928849223
    Total Energy =                       -463.1268692884922302
  Basis Set: 6-311G
    Blend: 6-311G
  Basis Set: (6-311G AUX)
    Blend: CC-PVTZ-JKFIT
  Charge       = 0
  Multiplicity = 1
  Basis Set: 6-311G
    Blend: 6-311G
  Basis Set: (6-311G AUX)
    Blend: CC-PVTZ-JKFIT

    Orbital Energies [Eh]
    ---------------------

    Doubly Occupied:

       1A    -10.310074     2A    -10.309810     3A    -10.293817
       4A    -10.293812     5A    -10.293748     6A    -10.293744
       7A    -10.293190     8A    -10.293186     9A    -10.293122
      10A    -10.293119    11A    -10.292369    12A    -10.292367
      13A     -0.981360    14A     -0.960101    15A     -0.886527
      16A     -0.860152    17A     -0.850367    18A     -0.829540
      19A     -0.728477    20A     -0.724510    21A     -0.688061
      22A     -0.681092    23A     -0.637278    24A     -0.596154
      25A     -0.568591    26A     -0.563739    27A     -0.532192
      28A     -0.525817    29A     -0.523269    30A     -0.518439
      31A     -0.505986    32A     -0.481267    33A     -0.452792
      34A     -0.452421    35A     -0.443390    36A     -0.426734
      37A     -0.415304    38A     -0.368264    39A     -0.337007
      40A     -0.332318    41A     -0.298227

  @DF-RKS Final Energy:  -463.12706450825323

   => Energetics <=

    Nuclear Repulsion Energy =            599.3600981864555024
    One-Electron Energy =               -1811.4693629685887117
    Two-Electron Energy =                 796.2319045854442265
    DFT Exchange-Correlation Energy =     -47.2378045452547823
    Empirical Dispersion Energy =          -0.0118997663093031
    VV10 Nonlocal Energy =                  0.0000000000000000
    Total Energy =                       -463.1270645082531701

  Dipole Moment: [D]
     X:    -0.0000      Y:     0.0000      Z:    -0.0000     Total:     0.0000

    Molecular point group: c1
  Basis Set: 6-311G
    Blend: 6-311G
  Basis Set: (6-311G AUX)
    Blend: CC-PVTZ-JKFIT

  -Total Gradient:
     Atom            X                  Y                   Z
    ------   -----------------  -----------------  -----------------
       1       -0.001380565465    -0.000098222178     0.000044741457
       2        0.001381501491     0.000079009860    -0.000055168494
       3        0.000435785807    -0.000984071674    -0.000798736315
       4       -0.000345639473    -0.001167604716    -0.000562838745
       5        0.000360505604     0.001044825508     0.000778547541
       6       -0.000452058291     0.001124081863     0.000597627757
       7       -0.000206196180    -0.000094371670     0.000069039732
       8        0.000207822889     0.000035855936    -0.000108065481
       9       -0.000218873322     0.000067497393    -0.000054448536
      10        0.000217777381    -0.000005827105     0.000091338613
      11        0.000610815221     0.000040184091    -0.000024093812
      12       -0.000611181902    -0.000039915363     0.000021666206
      13        0.000328542590    -0.000418470248     0.000161736191
      14       -0.000309255895    -0.000052652947    -0.000460091453
      15        0.000258248558     0.000459787053    -0.000183009876
      16       -0.000277622705     0.000013649638     0.000483024340
      17       -0.000063431647    -0.000305189123     0.000333292492
      18        0.000068237385     0.000174427698    -0.000415234401
      19       -0.000127429788     0.000291861810    -0.000326316598
      20        0.000122694392    -0.000163309810     0.000408052998
      21        0.000238943994     0.000014738619    -0.000009628398
      22       -0.000238609459    -0.000016315807     0.000008790487

  **** Optimization is complete! (in 7 steps) ****
    Final optimized geometry and variables:
    Molecular point group: c1

    Geometry (in Angstrom), charge = 0, multiplicity = 1:

    C            0.744379855807     0.049716036128    -0.027648903301
    C           -0.744370615436    -0.049826683067     0.027704329774
    C            1.389532958215     0.855463295985    -0.979019301724
    C           -1.400382389700    -0.606426145505     1.136939761679
    C            1.559533544216    -0.658301227371     0.869453746158
    C           -1.548679689220     0.409276477972    -1.027221505099
    C            2.776678958144     0.947674587288    -1.032831307690
    C           -2.787424762068    -0.701250276307     1.188961716881
    C            2.946778493344    -0.565097662350     0.819933531619
    C           -2.936040114726     0.318745856507    -0.976142268240
    C            3.567096778625     0.238395822719    -0.132744477313
    C           -3.567101949605    -0.238383144348     0.132622425705
    H            0.811114626899     1.439029105041    -1.679550124551
    H           -0.832168780070    -0.955538894876     1.986126164784
    H            1.117261392192    -1.310020032449     1.608046417147
    H           -1.096200746909     0.826587990910    -1.914335771860
    H            3.239012642655     1.580899450736    -1.777267259951
    H           -3.258549757671    -1.132989830855     2.061060763736
    H            3.543004964379    -1.127545113353     1.524972222948
    H           -3.523480246681     0.679754183457    -1.808907292866
    H            4.645533452573     0.310425813258    -0.172937958733
    H           -4.645540259047    -0.310447140731     0.172700579912

*** Psi4 exiting successfully. Buy a developer a beer!
