                               Psi4 1.3.2 release

  ==> Input File <==

--------------------------------------------------------------------------
molecule {
0 1
 C    0.745510    0.049899   -0.027717
 C   -0.745516   -0.049820    0.027701
 C    1.400415    0.587764   -1.146709
 C   -1.388052   -0.872250    0.966370
 C    1.546978   -0.390669    1.037131
 C   -1.559347    0.675218   -0.856804
 C    2.787538    0.681292   -1.199383
 C   -2.775177   -0.965722    1.019133
 C    2.934290   -0.298724    0.986699
 C   -2.946646    0.583088   -0.806438
 C    3.564102    0.238298   -0.132469
 C   -3.564098   -0.238364    0.132484
 H    0.831412    0.909589   -2.006524
 H   -0.806755   -1.476853    1.646932
 H    1.090889   -0.781057    1.935013
 H   -1.115554    1.348423   -1.575456
 H    3.260902    1.093408   -2.080379
 H   -3.238201   -1.615470    1.749546
 H    3.522016   -0.639929    1.828261
 H   -3.544706    1.161856   -1.497394
 H    4.642225    0.310361   -0.172540
 H   -4.642216   -0.310479    0.172566
}
memory 700MB
set_num_threads(3)
psi4_io.set_default_path("/home/daniele/PSI4_sctatch/Psi4-biphenyl")
set freeze_core True
E, wfn = energy('wb97x-d/6-311+G*',return_wfn=True)
oeprop(wfn,"WIBERG_LOWDIN_INDICES")
clean()
--------------------------------------------------------------------------

    Molecular point group: c1

    Geometry (in Angstrom), charge = 0, multiplicity = 1:

       Center              X                  Y                   Z               Mass
    ------------   -----------------  -----------------  -----------------  -----------------
         C            0.745510155156     0.049899208865    -0.027717007760    12.000000000000
         C           -0.745515844844    -0.049819791135     0.027700992240    12.000000000000
         C            1.400415155156     0.587764208865    -1.146709007760    12.000000000000
         C           -1.388051844844    -0.872249791135     0.966369992240    12.000000000000
         C            1.546978155156    -0.390668791135     1.037130992240    12.000000000000
         C           -1.559346844844     0.675218208865    -0.856804007760    12.000000000000
         C            2.787538155156     0.681292208865    -1.199383007760    12.000000000000
         C           -2.775176844844    -0.965721791135     1.019132992240    12.000000000000
         C            2.934290155156    -0.298723791135     0.986698992240    12.000000000000
         C           -2.946645844844     0.583088208865    -0.806438007760    12.000000000000
         C            3.564102155156     0.238298208865    -0.132469007760    12.000000000000
         C           -3.564097844844    -0.238363791135     0.132483992240    12.000000000000
         H            0.831412155156     0.909589208865    -2.006524007760     1.007825032230
         H           -0.806754844844    -1.476852791135     1.646931992240     1.007825032230
         H            1.090889155156    -0.781056791135     1.935012992240     1.007825032230
         H           -1.115553844844     1.348423208865    -1.575456007760     1.007825032230
         H            3.260902155156     1.093408208865    -2.080379007760     1.007825032230
         H           -3.238200844844    -1.615469791135     1.749545992240     1.007825032230
         H            3.522016155156    -0.639928791135     1.828260992240     1.007825032230
         H           -3.544705844844     1.161856208865    -1.497394007760     1.007825032230
         H            4.642225155156     0.310361208865    -0.172540007760     1.007825032230
         H           -4.642215844844    -0.310478791135     0.172565992240     1.007825032230

  Charge       = 0
  Multiplicity = 1
  Basis Set: 6-311+G*
    Blend: 6-311+G*
  Basis Set: (6-311+G* AUX)
    Blend: HEAVY-AUG-CC-PVTZ-JKFIT

    Orbital Energies [Eh]
    ---------------------

    Doubly Occupied:

       1A    -10.306668     2A    -10.306392     3A    -10.292112
       4A    -10.292103     5A    -10.292057     6A    -10.292055
       7A    -10.291499     8A    -10.291491     9A    -10.291433
      10A    -10.291430    11A    -10.290615    12A    -10.290614
      13A     -0.977117    14A     -0.955350    15A     -0.883085
      16A     -0.857125    17A     -0.847437    18A     -0.825738
      19A     -0.725699    20A     -0.721889    21A     -0.686372
      22A     -0.677937    23A     -0.633524    24A     -0.593714
      25A     -0.569317    26A     -0.559032    27A     -0.532194
      28A     -0.521970    29A     -0.520144    30A     -0.514131
      31A     -0.503948    32A     -0.478615    33A     -0.452071
      34A     -0.451491    35A     -0.443052    36A     -0.425597
      37A     -0.416432    38A     -0.367573    39A     -0.336944
      40A     -0.332256    41A     -0.299024

  @DF-RKS Final Energy:  -463.23128977688674

   => Energetics <=

    Nuclear Repulsion Energy =            599.3390654556214940
    One-Electron Energy =               -1811.7971876763479031
    Two-Electron Energy =                 796.4865455818711553
    DFT Exchange-Correlation Energy =     -47.2477951560371423
    Empirical Dispersion Energy =          -0.0119179819943340
    VV10 Nonlocal Energy =                  0.0000000000000000
    Total Energy =                       -463.2312897768866833

  Dipole Moment: [D]
     X:    -0.0000      Y:     0.0000      Z:    -0.0001     Total:     0.0001

*** Psi4 exiting successfully. Buy a developer a beer!
