                               Psi4 1.3.2 release

  ==> Input File <==

--------------------------------------------------------------------------
molecule {
0 1
 C    0.743243    0.049740   -0.027626
 C   -0.743247   -0.049638    0.027680
 C    1.416449   -0.024039   -1.252241
 C   -1.362247   -1.228470    0.458393
 C    1.489402    0.218299    1.144194
 C   -1.543609    1.034286   -0.350306
 C    2.805314    0.069714   -1.304305
 C   -2.751154   -1.321292    0.511056
 C    2.878427    0.310134    1.092928
 C   -2.932580    0.941362   -0.299722
 C    3.539754    0.236552   -0.131648
 C   -3.539750   -0.236631    0.131608
 H    0.845275   -0.157947   -2.161609
 H   -0.748803   -2.071424    0.748626
 H    0.974345    0.279605    2.093972
 H   -1.070820    1.949862   -0.680928
 H    3.312475    0.010041   -2.257994
 H   -3.216010   -2.239220    0.845142
 H    3.442303    0.441345    2.006779
 H   -3.538763    1.787666   -0.594014
 H    4.618126    0.308597   -0.171768
 H   -4.618120   -0.308733    0.171684
}
memory 700MB
set_num_threads(3)
psi4_io.set_default_path("/home/daniele/PSI4_sctatch/Psi4-biphenyl")
set freeze_core True
E, wfn = energy('wb97x-d/6-311+G*',return_wfn=True)
oeprop(wfn,"WIBERG_LOWDIN_INDICES")
clean()
--------------------------------------------------------------------------

    Molecular point group: c1

    Geometry (in Angstrom), charge = 0, multiplicity = 1:

       Center              X                  Y                   Z               Mass
    ------------   -----------------  -----------------  -----------------  -----------------
         C            0.743242791907     0.049740036524    -0.027626137198    12.000000000000
         C           -0.743247208093    -0.049637963476     0.027679862802    12.000000000000
         C            1.416448791907    -0.024038963476    -1.252241137198    12.000000000000
         C           -1.362247208093    -1.228469963476     0.458392862802    12.000000000000
         C            1.489401791907     0.218299036524     1.144193862802    12.000000000000
         C           -1.543609208093     1.034286036524    -0.350306137198    12.000000000000
         C            2.805313791907     0.069714036524    -1.304305137198    12.000000000000
         C           -2.751154208093    -1.321291963476     0.511055862802    12.000000000000
         C            2.878426791907     0.310134036524     1.092927862802    12.000000000000
         C           -2.932580208093     0.941362036524    -0.299722137198    12.000000000000
         C            3.539753791907     0.236552036524    -0.131648137198    12.000000000000
         C           -3.539750208093    -0.236630963476     0.131607862802    12.000000000000
         H            0.845274791907    -0.157946963476    -2.161609137198     1.007825032230
         H           -0.748803208093    -2.071423963476     0.748625862802     1.007825032230
         H            0.974344791907     0.279605036524     2.093971862802     1.007825032230
         H           -1.070820208093     1.949862036524    -0.680928137198     1.007825032230
         H            3.312474791907     0.010041036524    -2.257994137198     1.007825032230
         H           -3.216010208093    -2.239219963476     0.845141862802     1.007825032230
         H            3.442302791907     0.441345036524     2.006778862802     1.007825032230
         H           -3.538763208093     1.787666036524    -0.594014137198     1.007825032230
         H            4.618125791907     0.308597036524    -0.171768137198     1.007825032230
         H           -4.618120208093    -0.308732963476     0.171683862802     1.007825032230

  Charge       = 0
  Multiplicity = 1
  Basis Set: 6-311+G*
    Blend: 6-311+G*
  Basis Set: (6-311+G* AUX)
    Blend: HEAVY-AUG-CC-PVTZ-JKFIT

    Orbital Energies [Eh]
    ---------------------

    Doubly Occupied:

       1A    -10.301320     2A    -10.301033     3A    -10.291492
       4A    -10.291486     5A    -10.291367     6A    -10.291367
       7A    -10.290449     8A    -10.290448     9A    -10.290360
      10A    -10.290360    11A    -10.290220    12A    -10.290220
      13A     -0.976003    14A     -0.954123    15A     -0.881541
      16A     -0.851460    17A     -0.849245    18A     -0.824584
      19A     -0.722206    20A     -0.708510    21A     -0.700232
      22A     -0.675006    23A     -0.626486    24A     -0.597820
      25A     -0.558484    26A     -0.549525    27A     -0.541633
      28A     -0.536459    29A     -0.511753    30A     -0.510957
      31A     -0.508091    32A     -0.461499    33A     -0.456559
      34A     -0.456225    35A     -0.431539    36A     -0.428053
      37A     -0.416958    38A     -0.337493    39A     -0.336874
      40A     -0.330325    41A     -0.320655

  @DF-RKS Final Energy:  -463.23226523778334

   => Energetics <=

    Nuclear Repulsion Energy =            599.2945340164012578
    One-Electron Energy =               -1811.8468215955581400
    Two-Electron Energy =                 796.5746067184180674
    DFT Exchange-Correlation Energy =     -47.2426524286415059
    Empirical Dispersion Energy =          -0.0119319484030357
    VV10 Nonlocal Energy =                  0.0000000000000000
    Total Energy =                       -463.2322652377833947

  Dipole Moment: [D]
     X:     0.0000      Y:    -0.0001      Z:    -0.0001     Total:     0.0001

*** Psi4 exiting successfully. Buy a developer a beer!
