                               Psi4 1.3.2 release

  ==> Input File <==

--------------------------------------------------------------------------
molecule {
0 1
 C    0.743075    0.049716   -0.027562
 C   -0.743070   -0.049769    0.027614
 C    1.361852    1.221353   -0.478015
 C   -1.415044    0.002988    1.254061
 C    1.543886   -1.026865    0.370156
 C   -1.490688   -0.197517   -1.146166
 C    2.750710    1.314189   -0.530828
 C   -2.803851   -0.091156    1.305977
 C    2.932816   -0.933699    0.319820
 C   -2.879681   -0.289288   -1.095013
 C    3.539664    0.236976   -0.131415
 C   -3.539667   -0.236935    0.131380
 H    0.748244    2.058913   -0.783163
 H   -0.842971    0.121237    2.165042
 H    1.071479   -1.937154    0.715620
 H   -0.976747   -0.243063   -2.097443
 H    3.215244    2.226522   -0.880309
 H   -3.309907   -0.047862    2.261129
 H    3.539209   -1.774323    0.629530
 H   -3.444551   -0.404253   -2.010429
 H    4.618024    0.309186   -0.171461
 H   -4.618032   -0.309108    0.171391
}
memory 700MB
set_num_threads(3)
psi4_io.set_default_path("/home/daniele/PSI4_sctatch/Psi4-biphenyl")
set freeze_core True
E, wfn = energy('wb97x-d/6-311+G*',return_wfn=True)
oeprop(wfn,"WIBERG_LOWDIN_INDICES")
clean()
--------------------------------------------------------------------------

    Molecular point group: c1

    Geometry (in Angstrom), charge = 0, multiplicity = 1:

       Center              X                  Y                   Z               Mass
    ------------   -----------------  -----------------  -----------------  -----------------
         C            0.743074896563     0.049715923783    -0.027562092630    12.000000000000
         C           -0.743070103437    -0.049769076217     0.027613907370    12.000000000000
         C            1.361851896563     1.221352923783    -0.478015092630    12.000000000000
         C           -1.415044103437     0.002987923783     1.254060907370    12.000000000000
         C            1.543885896563    -1.026865076217     0.370155907370    12.000000000000
         C           -1.490688103437    -0.197517076217    -1.146166092630    12.000000000000
         C            2.750709896563     1.314188923783    -0.530828092630    12.000000000000
         C           -2.803851103437    -0.091156076217     1.305976907370    12.000000000000
         C            2.932815896563    -0.933699076217     0.319819907370    12.000000000000
         C           -2.879681103437    -0.289288076217    -1.095013092630    12.000000000000
         C            3.539663896563     0.236975923783    -0.131415092630    12.000000000000
         C           -3.539667103437    -0.236935076217     0.131379907370    12.000000000000
         H            0.748243896563     2.058912923783    -0.783163092630     1.007825032230
         H           -0.842971103437     0.121236923783     2.165041907370     1.007825032230
         H            1.071478896563    -1.937154076217     0.715619907370     1.007825032230
         H           -0.976747103437    -0.243063076217    -2.097443092630     1.007825032230
         H            3.215243896563     2.226521923783    -0.880309092630     1.007825032230
         H           -3.309907103437    -0.047862076217     2.261128907370     1.007825032230
         H            3.539208896563    -1.774323076217     0.629529907370     1.007825032230
         H           -3.444551103437    -0.404253076217    -2.010429092630     1.007825032230
         H            4.618023896563     0.309185923783    -0.171461092630     1.007825032230
         H           -4.618032103437    -0.309108076217     0.171390907370     1.007825032230

  Charge       = 0
  Multiplicity = 1
  Basis Set: 6-311+G*
    Blend: 6-311+G*
  Basis Set: (6-311+G* AUX)
    Blend: HEAVY-AUG-CC-PVTZ-JKFIT

    Orbital Energies [Eh]
    ---------------------

    Doubly Occupied:

       1A    -10.301367     2A    -10.301079     3A    -10.291509
       4A    -10.291502     5A    -10.291385     6A    -10.291384
       7A    -10.290468     8A    -10.290466     9A    -10.290381
      10A    -10.290380    11A    -10.290236    12A    -10.290235
      13A     -0.976053    14A     -0.954135    15A     -0.881598
      16A     -0.851661    17A     -0.849128    18A     -0.824573
      19A     -0.722270    20A     -0.709113    21A     -0.699654
      22A     -0.675034    23A     -0.626575    24A     -0.597739
      25A     -0.558662    26A     -0.550022    27A     -0.541003
      28A     -0.536407    29A     -0.511871    30A     -0.510917
      31A     -0.508167    32A     -0.461920    33A     -0.456273
      34A     -0.456172    35A     -0.431830    36A     -0.427810
      37A     -0.417123    38A     -0.338748    39A     -0.336805
      40A     -0.330436    41A     -0.319546

  @DF-RKS Final Energy:  -463.23242021963046

   => Energetics <=

    Nuclear Repulsion Energy =            599.3333435232295869
    One-Electron Energy =               -1811.9221574447419698
    Two-Electron Energy =                 796.6111252224807231
    DFT Exchange-Correlation Energy =     -47.2427889332740349
    Empirical Dispersion Energy =          -0.0119425873248036
    VV10 Nonlocal Energy =                  0.0000000000000000
    Total Energy =                       -463.2324202196305123

  Dipole Moment: [D]
     X:    -0.0000      Y:     0.0000      Z:    -0.0000     Total:     0.0001

*** Psi4 exiting successfully. Buy a developer a beer!
