                               Psi4 1.3.2 release

  ==> Input File <==

--------------------------------------------------------------------------
molecule {
0 1
 C    0.745522    0.049855   -0.027577
 C   -0.745505   -0.049991    0.027770
 C    1.418899    1.190063    0.438072
 C   -1.505913    0.813398    0.831939
 C    1.528501   -0.992767   -0.547421
 C   -1.441472   -1.010814   -0.722428
 C    2.806055    1.284133    0.387261
 C   -2.893183    0.721762    0.884052
 C    2.915747   -0.900948   -0.599799
 C   -2.828633   -1.104827   -0.671681
 C    3.564082    0.238706   -0.132417
 C   -3.564096   -0.238592    0.132261
 H    0.860854    2.034083    0.816004
 H   -1.016425    1.547821    1.454546
 H    1.061460   -1.905456   -0.887257
 H   -0.905869   -1.676617   -1.383074
 H    3.293019    2.180549    0.746946
 H   -3.448433    1.397381    1.520686
 H    3.489848   -1.726261   -0.998965
 H   -3.334464   -1.851436   -1.268990
 H    4.642193    0.310940   -0.172515
 H   -4.642217   -0.310736    0.172231
}
memory 700MB
set_num_threads(3)
psi4_io.set_default_path("/home/daniele/PSI4_sctatch/Psi4-biphenyl")
set freeze_core True
E, wfn = energy('wb97x-d/6-311+G*',return_wfn=True)
oeprop(wfn,"WIBERG_LOWDIN_INDICES")
clean()
--------------------------------------------------------------------------

    Molecular point group: c1

    Geometry (in Angstrom), charge = 0, multiplicity = 1:

       Center              X                  Y                   Z               Mass
    ------------   -----------------  -----------------  -----------------  -----------------
         C            0.745521910864     0.049854960428    -0.027576954334    12.000000000000
         C           -0.745505089136    -0.049991039572     0.027770045666    12.000000000000
         C            1.418898910864     1.190062960428     0.438072045666    12.000000000000
         C           -1.505913089136     0.813397960428     0.831939045666    12.000000000000
         C            1.528500910864    -0.992767039572    -0.547420954334    12.000000000000
         C           -1.441472089136    -1.010814039572    -0.722427954334    12.000000000000
         C            2.806054910864     1.284132960428     0.387261045666    12.000000000000
         C           -2.893183089136     0.721761960428     0.884052045666    12.000000000000
         C            2.915746910864    -0.900948039572    -0.599798954334    12.000000000000
         C           -2.828633089136    -1.104827039572    -0.671680954334    12.000000000000
         C            3.564081910864     0.238705960428    -0.132416954334    12.000000000000
         C           -3.564096089136    -0.238592039572     0.132261045666    12.000000000000
         H            0.860853910864     2.034082960428     0.816004045666     1.007825032230
         H           -1.016425089136     1.547820960428     1.454546045666     1.007825032230
         H            1.061459910864    -1.905456039572    -0.887256954334     1.007825032230
         H           -0.905869089136    -1.676617039572    -1.383073954334     1.007825032230
         H            3.293018910864     2.180548960428     0.746946045666     1.007825032230
         H           -3.448433089136     1.397380960428     1.520686045666     1.007825032230
         H            3.489847910864    -1.726261039572    -0.998964954334     1.007825032230
         H           -3.334464089136    -1.851436039572    -1.268989954334     1.007825032230
         H            4.642192910864     0.310939960428    -0.172514954334     1.007825032230
         H           -4.642217089136    -0.310736039572     0.172231045666     1.007825032230

  Charge       = 0
  Multiplicity = 1
  Basis Set: 6-311+G*
    Blend: 6-311+G*
  Basis Set: (6-311+G* AUX)
    Blend: HEAVY-AUG-CC-PVTZ-JKFIT

    Orbital Energies [Eh]
    ---------------------

    Doubly Occupied:

       1A    -10.306669     2A    -10.306393     3A    -10.292112
       4A    -10.292103     5A    -10.292057     6A    -10.292055
       7A    -10.291499     8A    -10.291492     9A    -10.291433
      10A    -10.291430    11A    -10.290615    12A    -10.290614
      13A     -0.977118    14A     -0.955351    15A     -0.883085
      16A     -0.857125    17A     -0.847437    18A     -0.825739
      19A     -0.725700    20A     -0.721890    21A     -0.686372
      22A     -0.677938    23A     -0.633525    24A     -0.593714
      25A     -0.569318    26A     -0.559032    27A     -0.532194
      28A     -0.521970    29A     -0.520144    30A     -0.514131
      31A     -0.503947    32A     -0.478616    33A     -0.452072
      34A     -0.451492    35A     -0.443053    36A     -0.425598
      37A     -0.416431    38A     -0.367574    39A     -0.336944
      40A     -0.332256    41A     -0.299024

  @DF-RKS Final Energy:  -463.23129005988523

   => Energetics <=

    Nuclear Repulsion Energy =            599.3388592845997209
    One-Electron Energy =               -1811.7967449932793897
    Two-Electron Energy =                 796.4863112398004432
    DFT Exchange-Correlation Energy =     -47.2477976505182369
    Empirical Dispersion Energy =          -0.0119179404877681
    VV10 Nonlocal Energy =                  0.0000000000000000
    Total Energy =                       -463.2312900598852252

  Dipole Moment: [D]
     X:    -0.0000      Y:     0.0002      Z:    -0.0001     Total:     0.0003

*** Psi4 exiting successfully. Buy a developer a beer!
