                               Psi4 1.3.2 release

  ==> Input File <==

--------------------------------------------------------------------------
molecule {
0 1
 C    0.743234    0.049777   -0.027597
 C   -0.743237   -0.049737    0.027574
 C    1.368432    1.293375   -0.172304
 C   -1.438026    0.309261    1.188065
 C    1.537362   -1.098804    0.064444
 C   -1.467771   -0.503794   -1.080231
 C    2.757364    1.386752   -0.222873
 C   -2.827018    0.217280    1.239564
 C    2.926276   -1.006218    0.011949
 C   -2.856619   -0.597850   -1.028620
 C    3.539681    0.236987   -0.131350
 C   -3.539678   -0.237024    0.131376
 H    0.759603    2.184881   -0.247567
 H   -0.883039    0.657781    2.049252
 H    1.059838   -2.063034    0.179998
 H   -0.936408   -0.779554   -1.981747
 H    3.227029    2.354697   -0.335979
 H   -3.350869    0.497325    2.143694
 H    3.527653   -1.902465    0.085316
 H   -3.403807   -0.949626   -1.892990
 H    4.618047    0.309178   -0.171360
 H   -4.618041   -0.309245    0.171406
}
memory 700MB
set_num_threads(3)
psi4_io.set_default_path("/home/daniele/PSI4_sctatch/Psi4-biphenyl")
set freeze_core True
E, wfn = energy('wb97x-d/6-311+G*',return_wfn=True)
oeprop(wfn,"WIBERG_LOWDIN_INDICES")
clean()
--------------------------------------------------------------------------

    Molecular point group: c1

    Geometry (in Angstrom), charge = 0, multiplicity = 1:

       Center              X                  Y                   Z               Mass
    ------------   -----------------  -----------------  -----------------  -----------------
         C            0.743233960754     0.049777016129    -0.027596916795    12.000000000000
         C           -0.743237039246    -0.049736983871     0.027574083205    12.000000000000
         C            1.368431960754     1.293375016129    -0.172303916795    12.000000000000
         C           -1.438026039246     0.309261016129     1.188065083205    12.000000000000
         C            1.537361960754    -1.098803983871     0.064444083205    12.000000000000
         C           -1.467771039246    -0.503793983871    -1.080230916795    12.000000000000
         C            2.757363960754     1.386752016129    -0.222872916795    12.000000000000
         C           -2.827018039246     0.217280016129     1.239564083205    12.000000000000
         C            2.926275960754    -1.006217983871     0.011949083205    12.000000000000
         C           -2.856619039246    -0.597849983871    -1.028619916795    12.000000000000
         C            3.539680960754     0.236987016129    -0.131349916795    12.000000000000
         C           -3.539678039246    -0.237023983871     0.131376083205    12.000000000000
         H            0.759602960754     2.184881016129    -0.247566916795     1.007825032230
         H           -0.883039039246     0.657781016129     2.049252083205     1.007825032230
         H            1.059837960754    -2.063033983871     0.179998083205     1.007825032230
         H           -0.936408039246    -0.779553983871    -1.981746916795     1.007825032230
         H            3.227028960754     2.354697016129    -0.335978916795     1.007825032230
         H           -3.350869039246     0.497325016129     2.143694083205     1.007825032230
         H            3.527652960754    -1.902464983871     0.085316083205     1.007825032230
         H           -3.403807039246    -0.949625983871    -1.892989916795     1.007825032230
         H            4.618046960754     0.309178016129    -0.171359916795     1.007825032230
         H           -4.618041039246    -0.309244983871     0.171406083205     1.007825032230

  Charge       = 0
  Multiplicity = 1
  Basis Set: 6-311+G*
    Blend: 6-311+G*
  Basis Set: (6-311+G* AUX)
    Blend: HEAVY-AUG-CC-PVTZ-JKFIT

    Orbital Energies [Eh]
    ---------------------

    Doubly Occupied:

       1A    -10.301316     2A    -10.301029     3A    -10.291491
       4A    -10.291485     5A    -10.291366     6A    -10.291366
       7A    -10.290448     8A    -10.290447     9A    -10.290359
      10A    -10.290358    11A    -10.290219    12A    -10.290219
      13A     -0.976004    14A     -0.954124    15A     -0.881541
      16A     -0.851464    17A     -0.849248    18A     -0.824579
      19A     -0.722206    20A     -0.708512    21A     -0.700233
      22A     -0.675004    23A     -0.626486    24A     -0.597820
      25A     -0.558484    26A     -0.549526    27A     -0.541634
      28A     -0.536457    29A     -0.511758    30A     -0.510962
      31A     -0.508085    32A     -0.461500    33A     -0.456560
      34A     -0.456225    35A     -0.431538    36A     -0.428053
      37A     -0.416959    38A     -0.337489    39A     -0.336877
      40A     -0.330329    41A     -0.320651

  @DF-RKS Final Energy:  -463.23226256248370

   => Energetics <=

    Nuclear Repulsion Energy =            599.2975019199426470
    One-Electron Energy =               -1811.8527521931302999
    Two-Electron Energy =                 796.5775928899619203
    DFT Exchange-Correlation Energy =     -47.2426730613378894
    Empirical Dispersion Energy =          -0.0119321179201811
    VV10 Nonlocal Energy =                  0.0000000000000000
    Total Energy =                       -463.2322625624836974

  Dipole Moment: [D]
     X:     0.0000      Y:    -0.0000      Z:     0.0000     Total:     0.0000

*** Psi4 exiting successfully. Buy a developer a beer!
