                               Psi4 1.3.2 release

  ==> Input File <==

--------------------------------------------------------------------------
molecule {
0 1
 C    0.740861    0.049586   -0.027507
 C   -0.740862   -0.049599    0.027454
 C    1.445031    0.798706    0.924588
 C   -1.526834    1.084972    0.269369
 C    1.466331   -0.603824   -1.032623
 C   -1.384529   -1.279860   -0.161375
 C    2.833067    0.892980    0.872478
 C   -2.914928    0.992069    0.322385
 C    2.854592   -0.512246   -1.083487
 C   -2.772731   -1.372797   -0.111335
 C    3.542981    0.237174   -0.131434
 C   -3.542980   -0.237160    0.131478
 H    0.901579    1.289893    1.721179
 H   -1.046478    2.046718    0.393717
 H    0.935838   -1.166895   -1.789388
 H   -0.790941   -2.169725   -0.325565
 H    3.360207    1.470546    1.620014
 H   -3.505707    1.879961    0.503754
 H    3.397345   -1.018197   -1.870697
 H   -3.251842   -2.332303   -0.252990
 H    4.621269    0.309348   -0.171430
 H   -4.621267   -0.309345    0.171499
}
memory 700MB
set_num_threads(3)
psi4_io.set_default_path("/home/daniele/PSI4_sctatch/Psi4-biphenyl")
set freeze_core True
E, wfn = energy('wb97x-d/6-311+G*',return_wfn=True)
oeprop(wfn,"WIBERG_LOWDIN_INDICES")
clean()
--------------------------------------------------------------------------

    Molecular point group: c1

    Geometry (in Angstrom), charge = 0, multiplicity = 1:

       Center              X                  Y                   Z               Mass
    ------------   -----------------  -----------------  -----------------  -----------------
         C            0.740861058260     0.049585915577    -0.027506907370    12.000000000000
         C           -0.740861941740    -0.049599084423     0.027454092630    12.000000000000
         C            1.445031058260     0.798705915577     0.924588092630    12.000000000000
         C           -1.526833941740     1.084971915577     0.269369092630    12.000000000000
         C            1.466331058260    -0.603824084423    -1.032622907370    12.000000000000
         C           -1.384528941740    -1.279860084423    -0.161374907370    12.000000000000
         C            2.833067058260     0.892979915577     0.872478092630    12.000000000000
         C           -2.914927941740     0.992068915577     0.322385092630    12.000000000000
         C            2.854592058260    -0.512246084423    -1.083486907370    12.000000000000
         C           -2.772730941740    -1.372797084423    -0.111334907370    12.000000000000
         C            3.542981058260     0.237173915577    -0.131433907370    12.000000000000
         C           -3.542979941740    -0.237160084423     0.131478092630    12.000000000000
         H            0.901579058260     1.289892915577     1.721179092630     1.007825032230
         H           -1.046477941740     2.046717915577     0.393717092630     1.007825032230
         H            0.935838058260    -1.166895084423    -1.789387907370     1.007825032230
         H           -0.790940941740    -2.169725084423    -0.325564907370     1.007825032230
         H            3.360207058260     1.470545915577     1.620014092630     1.007825032230
         H           -3.505706941740     1.879960915577     0.503754092630     1.007825032230
         H            3.397345058260    -1.018197084423    -1.870696907370     1.007825032230
         H           -3.251841941740    -2.332303084423    -0.252989907370     1.007825032230
         H            4.621269058260     0.309347915577    -0.171429907370     1.007825032230
         H           -4.621266941740    -0.309345084423     0.171499092630     1.007825032230

  Charge       = 0
  Multiplicity = 1
  Basis Set: 6-311+G*
    Blend: 6-311+G*
  Basis Set: (6-311+G* AUX)
    Blend: HEAVY-AUG-CC-PVTZ-JKFIT

    Orbital Energies [Eh]
    ---------------------

    Doubly Occupied:

       1A    -10.303036     2A    -10.302740     3A    -10.291995
       4A    -10.291989     5A    -10.291900     6A    -10.291899
       7A    -10.291071     8A    -10.291066     9A    -10.291030
      10A    -10.291029    11A    -10.290615    12A    -10.290615
      13A     -0.977077    14A     -0.954537    15A     -0.882786
      16A     -0.854951    17A     -0.847855    18A     -0.824607
      19A     -0.723839    20A     -0.717673    21A     -0.691564
      22A     -0.675839    23A     -0.629380    24A     -0.595534
      25A     -0.563779    26A     -0.556122    27A     -0.534641
      28A     -0.530536    29A     -0.515349    30A     -0.510496
      31A     -0.509242    32A     -0.469479    33A     -0.454419
      34A     -0.453181    35A     -0.437475    36A     -0.422770
      37A     -0.421435    38A     -0.356820    39A     -0.334831
      40A     -0.333523    41A     -0.305608

  @DF-RKS Final Energy:  -463.23440899216115

   => Energetics <=

    Nuclear Repulsion Energy =            599.9517569544324260
    One-Electron Energy =               -1813.0962864241050738
    Two-Electron Energy =                 797.1669374785988111
    DFT Exchange-Correlation Energy =     -47.2446899879686271
    Empirical Dispersion Energy =          -0.0121270131185839
    VV10 Nonlocal Energy =                  0.0000000000000000
    Total Energy =                       -463.2344089921611499

  Dipole Moment: [D]
     X:     0.0000      Y:    -0.0000      Z:     0.0000     Total:     0.0000

*** Psi4 exiting successfully. Buy a developer a beer!
