                               Psi4 1.3.2 release

  ==> Input File <==

--------------------------------------------------------------------------
molecule {
0 1
 C    0.756407    0.050776   -0.028320
 C   -0.756508   -0.050563    0.027834
 C    1.449466    1.218275    0.448230
 C   -1.538647    0.833065    0.851227
 C    1.561671   -1.016344   -0.560642
 C   -1.472716   -1.034430   -0.740013
 C    2.854693    1.301868    0.392509
 C   -2.943072    0.731298    0.895461
 C    2.965761   -0.911789   -0.609172
 C   -2.877589   -1.120729   -0.679887
 C    3.611134    0.241991   -0.134360
 C   -3.611252   -0.241620    0.133794
 H    0.908999    2.070719    0.851803
 H   -1.068184    1.593113    1.469811
 H    1.111229   -1.935156   -0.927375
 H   -0.952245   -1.728182   -1.395320
 H    3.358425    2.195259    0.757982
 H   -3.515069    1.409787    1.526283
 H    3.555619   -1.731921   -1.015260
 H   -3.399205   -1.872398   -1.270125
 H    4.696536    0.314688   -0.174656
 H   -4.696652   -0.314263    0.174090
}
set optking {
  frozen_dihedral = ("
    3 1 2 4
    3 1 2 6
    5 1 2 4
    5 1 2 6
  ")
}
set {
  geom_maxiter 400
  g_convergence GAU_LOOSE
  dynamic_level 1
}
memory 700MB
set_num_threads(3)
psi4_io.set_default_path("/home/daniele/PSI4_sctatch/Psi4-biphenyl")
for _ in range(1):
  try:
    set opt_coordinates both
    optimize('wb97x-d/6-311G')
    break
  except OptimizationConvergenceError:
    break
  else:
    try:
      set opt_coordinates cartesian
      optimize('wb97x-d/6-311G')
      break
    except OptimizationConvergenceError:
      pass
clean()
--------------------------------------------------------------------------

    Molecular point group: c1
  Charge       = 0
  Multiplicity = 1
  Basis Set: 6-311G
    Blend: 6-311G
  Basis Set: (6-311G AUX)
    Blend: CC-PVTZ-JKFIT
  @DF-RKS Final Energy:  -463.12026425055171
    Total Energy =                       -463.1202642505517701
    Molecular point group: c1
  Basis Set: 6-311G
    Blend: 6-311G
  Basis Set: (6-311G AUX)
    Blend: CC-PVTZ-JKFIT
  Basis Set: 6-311G
    Blend: 6-311G
  Basis Set: (6-311G AUX)
    Blend: CC-PVTZ-JKFIT
  @DF-RKS Final Energy:  -463.12717911441564
    Total Energy =                       -463.1271791144155827
  Basis Set: 6-311G
    Blend: 6-311G
  Basis Set: (6-311G AUX)
    Blend: CC-PVTZ-JKFIT
  Charge       = 0
  Multiplicity = 1
  Basis Set: 6-311G
    Blend: 6-311G
  Basis Set: (6-311G AUX)
    Blend: CC-PVTZ-JKFIT

    Orbital Energies [Eh]
    ---------------------

    Doubly Occupied:

       1A    -10.309994     2A    -10.309734     3A    -10.293875
       4A    -10.293870     5A    -10.293811     6A    -10.293808
       7A    -10.293209     8A    -10.293206     9A    -10.293157
      10A    -10.293155    11A    -10.292274    12A    -10.292272
      13A     -0.981250    14A     -0.960123    15A     -0.886225
      16A     -0.860132    17A     -0.850504    18A     -0.829385
      19A     -0.728061    20A     -0.724288    21A     -0.688373
      22A     -0.680901    23A     -0.636887    24A     -0.596170
      25A     -0.568017    26A     -0.563547    27A     -0.532389
      28A     -0.526335    29A     -0.523130    30A     -0.517783
      31A     -0.506865    32A     -0.480307    33A     -0.452971
      34A     -0.452340    35A     -0.443189    36A     -0.426035
      37A     -0.415976    38A     -0.367726    39A     -0.336883
      40A     -0.332580    41A     -0.298541

  @DF-RKS Final Energy:  -463.12736438660988

   => Energetics <=

    Nuclear Repulsion Energy =            599.3388715899673116
    One-Electron Energy =               -1811.4334192233300200
    Two-Electron Energy =                 796.2153163066436719
    DFT Exchange-Correlation Energy =     -47.2362151196242195
    Empirical Dispersion Energy =          -0.0119179402666344
    VV10 Nonlocal Energy =                  0.0000000000000000
    Total Energy =                       -463.1273643866098837

  Dipole Moment: [D]
     X:    -0.0000      Y:     0.0001      Z:    -0.0002     Total:     0.0002

    Molecular point group: c1
  Basis Set: 6-311G
    Blend: 6-311G
  Basis Set: (6-311G AUX)
    Blend: CC-PVTZ-JKFIT

  -Total Gradient:
     Atom            X                  Y                   Z
    ------   -----------------  -----------------  -----------------
       1        0.000514320876     0.000034395656    -0.000010319975
       2       -0.000513244782    -0.000038764672     0.000022238171
       3        0.000632941925    -0.000944551582     0.002207175917
       4       -0.000660926542     0.001556159918    -0.001824047121
       5        0.000339767364     0.001009539848    -0.002248481376
       6       -0.000313347748    -0.001619486917     0.001856929221
       7        0.000019851035    -0.000178390690    -0.000024290446
       8       -0.000006488626    -0.000096724793    -0.000152692582
       9       -0.000004393412     0.000179470174     0.000021392510
      10       -0.000007832397     0.000097573572     0.000151769963
      11       -0.000219059882    -0.000014045218     0.000008834839
      12        0.000218621771     0.000013952817    -0.000007776821
      13        0.000309838741    -0.000134511947    -0.000345810839
      14       -0.000286992586    -0.000388366787     0.000013569403
      15        0.000314601667     0.000176726960     0.000322655712
      16       -0.000337408104     0.000347280280     0.000008795552
      17        0.000069169766    -0.000029354974    -0.000117335329
      18       -0.000062784378    -0.000122736638     0.000020833561
      19        0.000073354582     0.000038989607     0.000111892242
      20       -0.000080078287     0.000113146244    -0.000015559793
      21       -0.000051748056    -0.000003667935     0.000002114285
      22        0.000051835429     0.000003341539    -0.000001859912

  **** Optimization is complete! (in 3 steps) ****
    Final optimized geometry and variables:
    Molecular point group: c1

    Geometry (in Angstrom), charge = 0, multiplicity = 1:

    C            0.745521821230     0.049854598573    -0.027576561823
    C           -0.745505373629    -0.049991240825     0.027770414201
    C            1.418898592283     1.190063012393     0.438072489241
    C           -1.505913314775     0.813397651616     0.831938574935
    C            1.528500558440    -0.992767203886    -0.547421073999
    C           -1.441472166332    -1.010814357900    -0.722428421361
    C            2.806055329555     1.284133289481     0.387260665395
    C           -2.893182597319     0.721761912542     0.884051948279
    C            2.915746735762    -0.900947617603    -0.599798683427
    C           -2.828633264315    -1.104826774586    -0.671681169875
    C            3.564082078144     0.238705954575    -0.132416853607
    C           -3.564095588643    -0.238591819309     0.132261184530
    H            0.860853835490     2.034083385179     0.816003765099
    H           -1.016424724702     1.547821288731     1.454545517874
    H            1.061460187154    -1.905456095887    -0.887256523203
    H           -0.905868884776    -1.676616763595    -1.383073568673
    H            3.293019212929     2.180548716609     0.746945604944
    H           -3.448433206383     1.397381246671     1.520686120233
    H            3.489848361883    -1.726260886455    -0.998964539480
    H           -3.334464077270    -1.851436019798    -1.268990181454
    H            4.642192666872     0.310939677423    -0.172514762224
    H           -4.642216834170    -0.310735514931     0.172231446247

*** Psi4 exiting successfully. Buy a developer a beer!
