                               Psi4 1.3.2 release

  ==> Input File <==

--------------------------------------------------------------------------
molecule {
0 1
 C    0.743072    0.049654   -0.027646
 C   -0.743071   -0.049696    0.027594
 C    1.439457   -0.329093   -1.180959
 C   -1.369147   -1.295168    0.151505
 C    1.466246    0.523327    1.072893
 C   -1.536556    1.100899   -0.043477
 C    2.828436   -0.237459   -1.232423
 C   -2.758057   -1.388379    0.201987
 C    2.855046    0.617430    1.021091
 C   -2.925425    1.008444    0.009386
 C    3.539626    0.236653   -0.131610
 C   -3.539627   -0.236616    0.131648
 H    0.885674   -0.692383   -2.036811
 H   -0.760981   -2.188324    0.211042
 H    0.933875    0.813984    1.969128
 H   -1.058564    2.066652   -0.143395
 H    3.353403   -0.532918   -2.130974
 H   -3.228274   -2.357807    0.298872
 H    3.401047    0.984500    1.879826
 H   -3.526176    1.906290   -0.047642
 H    4.617993    0.308760   -0.171699
 H   -4.617995   -0.308694    0.171766
}
memory 700MB
set_num_threads(3)
psi4_io.set_default_path("/home/daniele/PSI4_sctatch/Psi4-biphenyl")
set freeze_core True
E, wfn = energy('wb97x-d/6-311+G*',return_wfn=True)
oeprop(wfn,"WIBERG_LOWDIN_INDICES")
clean()
--------------------------------------------------------------------------

    Molecular point group: c1

    Geometry (in Angstrom), charge = 0, multiplicity = 1:

       Center              X                  Y                   Z               Mass
    ------------   -----------------  -----------------  -----------------  -----------------
         C            0.743071986918     0.049653919070    -0.027645882425    12.000000000000
         C           -0.743071013082    -0.049696080930     0.027594117575    12.000000000000
         C            1.439456986918    -0.329093080930    -1.180958882425    12.000000000000
         C           -1.369147013082    -1.295168080930     0.151505117575    12.000000000000
         C            1.466245986918     0.523326919070     1.072893117575    12.000000000000
         C           -1.536556013082     1.100898919070    -0.043476882425    12.000000000000
         C            2.828435986918    -0.237459080930    -1.232422882425    12.000000000000
         C           -2.758057013082    -1.388379080930     0.201987117575    12.000000000000
         C            2.855045986918     0.617429919070     1.021091117575    12.000000000000
         C           -2.925425013082     1.008443919070     0.009386117575    12.000000000000
         C            3.539625986918     0.236652919070    -0.131609882425    12.000000000000
         C           -3.539627013082    -0.236616080930     0.131648117575    12.000000000000
         H            0.885673986918    -0.692383080930    -2.036810882425     1.007825032230
         H           -0.760981013082    -2.188324080930     0.211042117575     1.007825032230
         H            0.933874986918     0.813983919070     1.969128117575     1.007825032230
         H           -1.058564013082     2.066651919070    -0.143394882425     1.007825032230
         H            3.353402986918    -0.532918080930    -2.130973882425     1.007825032230
         H           -3.228274013082    -2.357807080930     0.298872117575     1.007825032230
         H            3.401046986918     0.984499919070     1.879826117575     1.007825032230
         H           -3.526176013082     1.906289919070    -0.047641882425     1.007825032230
         H            4.617992986918     0.308759919070    -0.171698882425     1.007825032230
         H           -4.617995013082    -0.308694080930     0.171766117575     1.007825032230

  Charge       = 0
  Multiplicity = 1
  Basis Set: 6-311+G*
    Blend: 6-311+G*
  Basis Set: (6-311+G* AUX)
    Blend: HEAVY-AUG-CC-PVTZ-JKFIT

    Orbital Energies [Eh]
    ---------------------

    Doubly Occupied:

       1A    -10.301364     2A    -10.301076     3A    -10.291508
       4A    -10.291502     5A    -10.291384     6A    -10.291384
       7A    -10.290467     8A    -10.290465     9A    -10.290380
      10A    -10.290380    11A    -10.290235    12A    -10.290235
      13A     -0.976054    14A     -0.954135    15A     -0.881597
      16A     -0.851664    17A     -0.849131    18A     -0.824569
      19A     -0.722269    20A     -0.709115    21A     -0.699657
      22A     -0.675030    23A     -0.626575    24A     -0.597740
      25A     -0.558662    26A     -0.550022    27A     -0.541005
      28A     -0.536406    29A     -0.511876    30A     -0.510922
      31A     -0.508160    32A     -0.461921    33A     -0.456273
      34A     -0.456172    35A     -0.431829    36A     -0.427810
      37A     -0.417124    38A     -0.338743    39A     -0.336809
      40A     -0.330439    41A     -0.319544

  @DF-RKS Final Energy:  -463.23241831315653

   => Energetics <=

    Nuclear Repulsion Energy =            599.3358788580783312
    One-Electron Energy =               -1811.9272324454395857
    Two-Electron Energy =                 796.6136807337096570
    DFT Exchange-Correlation Energy =     -47.2428027262684793
    Empirical Dispersion Energy =          -0.0119427332364331
    VV10 Nonlocal Energy =                  0.0000000000000000
    Total Energy =                       -463.2324183131564723

  Dipole Moment: [D]
     X:     0.0000      Y:     0.0000      Z:     0.0000     Total:     0.0001

*** Psi4 exiting successfully. Buy a developer a beer!
