                               Psi4 1.3.2 release

  ==> Input File <==

--------------------------------------------------------------------------
molecule {
0 1
 C    0.739048    0.049679   -0.027599
 C   -0.739152   -0.049355    0.027223
 C    1.378587    1.318863   -0.175304
 C   -1.449790    0.316848    1.211517
 C    1.551020   -1.122293    0.066289
 C   -1.480021   -0.512846   -1.103230
 C    2.783258    1.403994   -0.226700
 C   -2.853961    0.219927    1.255106
 C    2.954431   -1.019450    0.013088
 C   -2.883953   -0.603793   -1.042813
 C    3.569095    0.239147   -0.132925
 C   -3.569224   -0.238750    0.132069
 H    0.780283    2.225524   -0.249465
 H   -0.906243    0.671859    2.085617
 H    1.085784   -2.100104    0.180236
 H   -0.959996   -0.796881   -2.016694
 H    3.263196    2.374498   -0.339561
 H   -3.388212    0.500673    2.161038
 H    3.566221   -1.916909    0.085392
 H   -3.441429   -0.957665   -1.908231
 H    4.654569    0.311760   -0.173435
 H   -4.654711   -0.311280    0.172278
}
set optking {
  frozen_dihedral = ("
    3 1 2 4
    3 1 2 6
    5 1 2 4
    5 1 2 6
  ")
}
set {
  geom_maxiter 400
  g_convergence GAU_LOOSE
  dynamic_level 1
}
memory 700MB
set_num_threads(3)
psi4_io.set_default_path("/home/daniele/PSI4_sctatch/Psi4-biphenyl")
for _ in range(1):
  try:
    set opt_coordinates both
    optimize('wb97x-d/6-311G')
    break
  except OptimizationConvergenceError:
    break
  else:
    try:
      set opt_coordinates cartesian
      optimize('wb97x-d/6-311G')
      break
    except OptimizationConvergenceError:
      pass
clean()
--------------------------------------------------------------------------

    Molecular point group: c1
  Charge       = 0
  Multiplicity = 1
  Basis Set: 6-311G
    Blend: 6-311G
  Basis Set: (6-311G AUX)
    Blend: CC-PVTZ-JKFIT
  @DF-RKS Final Energy:  -463.12279824246764
    Total Energy =                       -463.1227982424676952
    Molecular point group: c1
  Basis Set: 6-311G
    Blend: 6-311G
  Basis Set: (6-311G AUX)
    Blend: CC-PVTZ-JKFIT
  Basis Set: 6-311G
    Blend: 6-311G
  Basis Set: (6-311G AUX)
    Blend: CC-PVTZ-JKFIT
  @DF-RKS Final Energy:  -463.12783298109196
    Total Energy =                       -463.1278329810920695
  Basis Set: 6-311G
    Blend: 6-311G
  Basis Set: (6-311G AUX)
    Blend: CC-PVTZ-JKFIT
  Charge       = 0
  Multiplicity = 1
  Basis Set: 6-311G
    Blend: 6-311G
  Basis Set: (6-311G AUX)
    Blend: CC-PVTZ-JKFIT

    Orbital Energies [Eh]
    ---------------------

    Doubly Occupied:

       1A    -10.304598     2A    -10.304316     3A    -10.293149
       4A    -10.293145     5A    -10.293014     6A    -10.293013
       7A    -10.292063     8A    -10.292062     9A    -10.291944
      10A    -10.291943    11A    -10.291860    12A    -10.291859
      13A     -0.980248    14A     -0.958903    15A     -0.884662
      16A     -0.854478    17A     -0.852254    18A     -0.828159
      19A     -0.724538    20A     -0.710703    21A     -0.702288
      22A     -0.677843    23A     -0.629831    24A     -0.599880
      25A     -0.556958    26A     -0.553905    27A     -0.545947
      28A     -0.537007    29A     -0.514689    30A     -0.513847
      31A     -0.511765    32A     -0.462772    33A     -0.457662
      34A     -0.456861    35A     -0.431404    36A     -0.427816
      37A     -0.417137    38A     -0.337490    39A     -0.336694
      40A     -0.330576    41A     -0.320435

  @DF-RKS Final Energy:  -463.12790152324243

   => Energetics <=

    Nuclear Repulsion Energy =            599.2975142229845460
    One-Electron Energy =               -1811.4938329628703286
    Two-Electron Energy =                 796.3115703264431886
    DFT Exchange-Correlation Energy =     -47.2312209920892343
    Empirical Dispersion Energy =          -0.0119321177106052
    VV10 Nonlocal Energy =                  0.0000000000000000
    Total Energy =                       -463.1279015232424285

  Dipole Moment: [D]
     X:     0.0000      Y:    -0.0000      Z:     0.0000     Total:     0.0000

    Molecular point group: c1
  Basis Set: 6-311G
    Blend: 6-311G
  Basis Set: (6-311G AUX)
    Blend: CC-PVTZ-JKFIT

  -Total Gradient:
     Atom            X                  Y                   Z
    ------   -----------------  -----------------  -----------------
       1       -0.000803822144    -0.000055349520     0.000028917262
       2        0.000803817897     0.000057228606    -0.000028944767
       3        0.000313165985     0.000048437397    -0.001053002351
       4       -0.000275641917    -0.000951106795     0.000482913025
       5        0.000395606980    -0.000001842943     0.001027345741
       6       -0.000433282990     0.000901374204    -0.000455601519
       7       -0.000153390452     0.000121637367    -0.000001842017
       8        0.000144629810     0.000059604226     0.000116467330
       9       -0.000134473668    -0.000141231361     0.000012422224
      10        0.000143651301    -0.000040218101    -0.000127737815
      11        0.000129469423     0.000009819012    -0.000004543553
      12       -0.000129708318    -0.000009077643     0.000004453796
      13        0.000014984164     0.000008558174    -0.000009946254
      14       -0.000014375855    -0.000005531406     0.000010722156
      15        0.000015657508    -0.000006184127     0.000007862323
      16       -0.000016318854     0.000004172692    -0.000010113597
      17       -0.000025896348     0.000023345548    -0.000005716937
      18        0.000025292260     0.000006382778     0.000024873398
      19       -0.000022793100    -0.000026850158     0.000007724317
      20        0.000023362397    -0.000003106374    -0.000026339628
      21       -0.000051771634    -0.000003640212     0.000001808382
      22        0.000051837459     0.000003579176    -0.000001723595

  **** Optimization is complete! (in 3 steps) ****
    Final optimized geometry and variables:
    Molecular point group: c1

    Geometry (in Angstrom), charge = 0, multiplicity = 1:

    C            0.743233573627     0.049777227898    -0.027596534612
    C           -0.743237099312    -0.049736512356     0.027574349730
    C            1.368431658395     1.293374664848    -0.172304284329
    C           -1.438026342111     0.309260600714     1.188064657498
    C            1.537362479556    -1.098804015162     0.064444165694
    C           -1.467771383961    -0.503794386427    -1.080230693835
    C            2.757364121299     1.386751685598    -0.222872581347
    C           -2.827017541610     0.217279992869     1.239564199504
    C            2.926275686791    -1.006217616995     0.011949277145
    C           -2.856618941483    -0.597849769508    -1.028620441577
    C            3.539681472176     0.236987017935    -0.131350479503
    C           -3.539678125250    -0.237023832424     0.131376443588
    H            0.759602527054     2.184881219720    -0.247567340765
    H           -0.883038711472     0.657781197714     2.049252100692
    H            1.059837612063    -2.063033865070     0.179997968960
    H           -0.936408293565    -0.779553620305    -1.981746986795
    H            3.227028897766     2.354696986903    -0.335978756065
    H           -3.350868952760     0.497325085750     2.143693823148
    H            3.527652650108    -1.902464579804     0.085316112560
    H           -3.403806671728    -0.949625678394    -1.892990396004
    H            4.618047474820     0.309177753934    -0.171359992299
    H           -4.618041270867    -0.309244713157     0.171406352031

*** Psi4 exiting successfully. Buy a developer a beer!
