                               Psi4 1.3.2 release

  ==> Input File <==

--------------------------------------------------------------------------
molecule {
0 1
 C    0.740825    0.049534   -0.027544
 C   -0.740826   -0.049515    0.027550
 C    1.398030    0.288698   -1.241609
 C   -1.363588   -1.084833    0.737013
 C    1.511955   -0.094204    1.133384
 C   -1.546398    0.890354   -0.628784
 C    2.786159    0.382569   -1.293316
 C   -2.751785   -1.177204    0.789675
 C    2.900240   -0.002544    1.081820
 C   -2.934614    0.797164   -0.578185
 C    3.542182    0.236722   -0.131746
 C   -3.542182   -0.236737    0.131742
 H    0.817025    0.379832   -2.150121
 H   -0.754258   -1.830795    1.230497
 H    1.017012   -0.257247    2.081918
 H   -1.079780    1.708226   -1.162281
 H    3.277164    0.560934   -2.240619
 H   -3.215464   -1.987203    1.336653
 H    3.479296   -0.109416    1.989319
 H   -3.540994    1.535651   -1.085358
 H    4.620483    0.308775   -0.171855
 H   -4.620481   -0.308804    0.171848
}
memory 700MB
set_num_threads(3)
psi4_io.set_default_path("/home/daniele/PSI4_sctatch/Psi4-biphenyl")
set freeze_core True
E, wfn = energy('wb97x-d/6-311+G*',return_wfn=True)
oeprop(wfn,"WIBERG_LOWDIN_INDICES")
clean()
--------------------------------------------------------------------------

    Molecular point group: c1

    Geometry (in Angstrom), charge = 0, multiplicity = 1:

       Center              X                  Y                   Z               Mass
    ------------   -----------------  -----------------  -----------------  -----------------
         C            0.740825136142     0.049533995897    -0.027544006541    12.000000000000
         C           -0.740825863858    -0.049515004103     0.027549993459    12.000000000000
         C            1.398030136142     0.288697995897    -1.241609006541    12.000000000000
         C           -1.363587863858    -1.084833004103     0.737012993459    12.000000000000
         C            1.511955136142    -0.094204004103     1.133383993459    12.000000000000
         C           -1.546397863858     0.890353995897    -0.628784006541    12.000000000000
         C            2.786159136142     0.382568995897    -1.293316006541    12.000000000000
         C           -2.751784863858    -1.177204004103     0.789674993459    12.000000000000
         C            2.900240136142    -0.002544004103     1.081819993459    12.000000000000
         C           -2.934613863858     0.797163995897    -0.578185006541    12.000000000000
         C            3.542182136142     0.236721995897    -0.131746006541    12.000000000000
         C           -3.542181863858    -0.236737004103     0.131741993459    12.000000000000
         H            0.817025136142     0.379831995897    -2.150121006541     1.007825032230
         H           -0.754257863858    -1.830795004103     1.230496993459     1.007825032230
         H            1.017012136142    -0.257247004103     2.081917993459     1.007825032230
         H           -1.079779863858     1.708225995897    -1.162281006541     1.007825032230
         H            3.277164136142     0.560933995897    -2.240619006541     1.007825032230
         H           -3.215463863858    -1.987203004103     1.336652993459     1.007825032230
         H            3.479296136142    -0.109416004103     1.989318993459     1.007825032230
         H           -3.540993863858     1.535650995897    -1.085358006541     1.007825032230
         H            4.620483136142     0.308774995897    -0.171855006541     1.007825032230
         H           -4.620480863858    -0.308804004103     0.171847993459     1.007825032230

  Charge       = 0
  Multiplicity = 1
  Basis Set: 6-311+G*
    Blend: 6-311+G*
  Basis Set: (6-311+G* AUX)
    Blend: HEAVY-AUG-CC-PVTZ-JKFIT

    Orbital Energies [Eh]
    ---------------------

    Doubly Occupied:

       1A    -10.302847     2A    -10.302551     3A    -10.291966
       4A    -10.291960     5A    -10.291868     6A    -10.291868
       7A    -10.291024     8A    -10.291019     9A    -10.290981
      10A    -10.290980    11A    -10.290597    12A    -10.290597
      13A     -0.977025    14A     -0.954492    15A     -0.882715
      16A     -0.854738    17A     -0.847917    18A     -0.824570
      19A     -0.723710    20A     -0.717179    21A     -0.692055
      22A     -0.675744    23A     -0.629106    24A     -0.595714
      25A     -0.563331    26A     -0.555803    27A     -0.534811
      28A     -0.531269    29A     -0.515014    30A     -0.510260
      31A     -0.509462    32A     -0.468894    33A     -0.454597
      34A     -0.453310    35A     -0.437041    36A     -0.423193
      37A     -0.421084    38A     -0.355753    39A     -0.335015
      40A     -0.333263    41A     -0.306339

  @DF-RKS Final Energy:  -463.23438009464110

   => Energetics <=

    Nuclear Repulsion Energy =            599.9387704966343335
    One-Electron Energy =               -1813.0757440033844432
    Two-Electron Energy =                 797.1592121380781464
    DFT Exchange-Correlation Energy =     -47.2444953886451557
    Empirical Dispersion Energy =          -0.0121233373239043
    VV10 Nonlocal Energy =                  0.0000000000000000
    Total Energy =                       -463.2343800946409829

  Dipole Moment: [D]
     X:    -0.0000      Y:    -0.0000      Z:     0.0000     Total:     0.0000

*** Psi4 exiting successfully. Buy a developer a beer!
