                               Psi4 1.3.2 release

  ==> Input File <==

--------------------------------------------------------------------------
molecule {
0 1
 C    0.740825    0.049620   -0.027524
 C   -0.740832   -0.049552    0.027466
 C    1.382825    1.283560    0.140701
 C   -1.464028    0.586877    1.044820
 C    1.527167   -1.088703   -0.248761
 C   -1.445970   -0.781677   -0.936816
 C    2.771064    1.376558    0.090293
 C   -2.852310    0.494919    1.095978
 C    2.915336   -0.995853   -0.301371
 C   -2.834084   -0.875681   -0.884848
 C    3.542185    0.237140   -0.131474
 C   -3.542178   -0.237196    0.131527
 H    0.787586    2.174958    0.290251
 H   -0.931396    1.137499    1.809270
 H    1.046476   -2.052127   -0.358388
 H   -0.902672   -1.260260   -1.741212
 H    3.249466    2.338700    0.215589
 H   -3.393853    0.987229    1.892625
 H    3.506980   -1.886368   -0.466370
 H   -3.362581   -1.439677   -1.641739
 H    4.620479    0.309318   -0.171482
 H   -4.620469   -0.309419    0.171578
}
memory 700MB
set_num_threads(3)
psi4_io.set_default_path("/home/daniele/PSI4_sctatch/Psi4-biphenyl")
set freeze_core True
E, wfn = energy('wb97x-d/6-311+G*',return_wfn=True)
oeprop(wfn,"WIBERG_LOWDIN_INDICES")
clean()
--------------------------------------------------------------------------

    Molecular point group: c1

    Geometry (in Angstrom), charge = 0, multiplicity = 1:

       Center              X                  Y                   Z               Mass
    ------------   -----------------  -----------------  -----------------  -----------------
         C            0.740824895344     0.049620026936    -0.027524097059    12.000000000000
         C           -0.740832104656    -0.049551973064     0.027465902941    12.000000000000
         C            1.382824895344     1.283560026936     0.140700902941    12.000000000000
         C           -1.464028104656     0.586877026936     1.044819902941    12.000000000000
         C            1.527166895344    -1.088702973064    -0.248761097059    12.000000000000
         C           -1.445970104656    -0.781676973064    -0.936816097059    12.000000000000
         C            2.771063895344     1.376558026936     0.090292902941    12.000000000000
         C           -2.852310104656     0.494919026936     1.095977902941    12.000000000000
         C            2.915335895344    -0.995852973064    -0.301371097059    12.000000000000
         C           -2.834084104656    -0.875680973064    -0.884848097059    12.000000000000
         C            3.542184895344     0.237140026936    -0.131474097059    12.000000000000
         C           -3.542178104656    -0.237195973064     0.131526902941    12.000000000000
         H            0.787585895344     2.174958026936     0.290250902941     1.007825032230
         H           -0.931396104656     1.137499026936     1.809269902941     1.007825032230
         H            1.046475895344    -2.052126973064    -0.358388097059     1.007825032230
         H           -0.902672104656    -1.260259973064    -1.741212097059     1.007825032230
         H            3.249465895344     2.338700026936     0.215588902941     1.007825032230
         H           -3.393853104656     0.987229026936     1.892624902941     1.007825032230
         H            3.506979895344    -1.886367973064    -0.466370097059     1.007825032230
         H           -3.362581104656    -1.439676973064    -1.641739097059     1.007825032230
         H            4.620478895344     0.309318026936    -0.171482097059     1.007825032230
         H           -4.620469104656    -0.309418973064     0.171577902941     1.007825032230

  Charge       = 0
  Multiplicity = 1
  Basis Set: 6-311+G*
    Blend: 6-311+G*
  Basis Set: (6-311+G* AUX)
    Blend: HEAVY-AUG-CC-PVTZ-JKFIT

    Orbital Energies [Eh]
    ---------------------

    Doubly Occupied:

       1A    -10.302848     2A    -10.302552     3A    -10.291966
       4A    -10.291960     5A    -10.291869     6A    -10.291868
       7A    -10.291024     8A    -10.291019     9A    -10.290981
      10A    -10.290980    11A    -10.290597    12A    -10.290597
      13A     -0.977025    14A     -0.954493    15A     -0.882715
      16A     -0.854737    17A     -0.847916    18A     -0.824571
      19A     -0.723710    20A     -0.717178    21A     -0.692055
      22A     -0.675744    23A     -0.629106    24A     -0.595715
      25A     -0.563330    26A     -0.555803    27A     -0.534811
      28A     -0.531269    29A     -0.515012    30A     -0.510262
      31A     -0.509461    32A     -0.468894    33A     -0.454599
      34A     -0.453311    35A     -0.437041    36A     -0.423192
      37A     -0.421084    38A     -0.355754    39A     -0.335014
      40A     -0.333263    41A     -0.306340

  @DF-RKS Final Energy:  -463.23438060793524

   => Energetics <=

    Nuclear Repulsion Energy =            599.9376024460742656
    One-Electron Energy =               -1813.0734024505811703
    Two-Electron Energy =                 797.1580320887574089
    DFT Exchange-Correlation Energy =     -47.2444894077056929
    Empirical Dispersion Energy =          -0.0121232844799570
    VV10 Nonlocal Energy =                  0.0000000000000000
    Total Energy =                       -463.2343806079352930

  Dipole Moment: [D]
     X:    -0.0000      Y:    -0.0001      Z:     0.0001     Total:     0.0001

*** Psi4 exiting successfully. Buy a developer a beer!
