                               Psi4 1.3.2 release

  ==> Input File <==

--------------------------------------------------------------------------
molecule {
0 1
 C    0.757186    0.050895   -0.028338
 C   -0.757294   -0.050481    0.027858
 C    1.472812    1.048503    0.722796
 C   -1.562208    1.007472    0.579642
 C    1.541791   -0.846284   -0.835234
 C   -1.452619   -1.208924   -0.468219
 C    2.877782    1.134604    0.662844
 C   -2.966355    0.902986    0.627933
 C    2.946249   -0.744382   -0.879624
 C   -2.857889   -1.292624   -0.412290
 C    3.612997    0.242036   -0.134436
 C   -3.613105   -0.241781    0.133813
 H    0.952888    1.754523    1.365076
 H   -1.112542    1.919648    0.963072
 H    1.074425   -1.618359   -1.440821
 H   -0.914997   -2.054982   -0.888283
 H    3.398344    1.896945    1.240295
 H   -3.555344    1.716176    1.049126
 H    3.519503   -1.433543   -1.497716
 H   -3.362722   -2.179118   -0.792941
 H    4.698400    0.314649   -0.174756
 H   -4.698501   -0.314516    0.174097
}
set optking {
  frozen_dihedral = ("
    3 1 2 4
    3 1 2 6
    5 1 2 4
    5 1 2 6
  ")
}
set {
  geom_maxiter 400
  g_convergence GAU_LOOSE
  dynamic_level 1
}
memory 700MB
set_num_threads(3)
psi4_io.set_default_path("/home/daniele/PSI4_sctatch/Psi4-biphenyl")
for _ in range(1):
  try:
    set opt_coordinates both
    optimize('wb97x-d/6-311G')
    break
  except OptimizationConvergenceError:
    break
  else:
    try:
      set opt_coordinates cartesian
      optimize('wb97x-d/6-311G')
      break
    except OptimizationConvergenceError:
      pass
clean()
--------------------------------------------------------------------------

    Molecular point group: c1
  Charge       = 0
  Multiplicity = 1
  Basis Set: 6-311G
    Blend: 6-311G
  Basis Set: (6-311G AUX)
    Blend: CC-PVTZ-JKFIT
  @DF-RKS Final Energy:  -463.11985423403115
    Total Energy =                       -463.1198542340310951
    Molecular point group: c1
  Basis Set: 6-311G
    Blend: 6-311G
  Basis Set: (6-311G AUX)
    Blend: CC-PVTZ-JKFIT
  Basis Set: 6-311G
    Blend: 6-311G
  Basis Set: (6-311G AUX)
    Blend: CC-PVTZ-JKFIT
  @DF-RKS Final Energy:  -463.12686464439389
    Total Energy =                       -463.1268646443939474
  Basis Set: 6-311G
    Blend: 6-311G
  Basis Set: (6-311G AUX)
    Blend: CC-PVTZ-JKFIT
  Charge       = 0
  Multiplicity = 1
  Basis Set: 6-311G
    Blend: 6-311G
  Basis Set: (6-311G AUX)
    Blend: CC-PVTZ-JKFIT

    Orbital Energies [Eh]
    ---------------------

    Doubly Occupied:

       1A    -10.310239     2A    -10.309982     3A    -10.293860
       4A    -10.293854     5A    -10.293800     6A    -10.293796
       7A    -10.293219     8A    -10.293215     9A    -10.293164
      10A    -10.293161    11A    -10.292246    12A    -10.292245
      13A     -0.981219    14A     -0.960171    15A     -0.886205
      16A     -0.860203    17A     -0.850488    18A     -0.829480
      19A     -0.728145    20A     -0.724413    21A     -0.688171
      22A     -0.681038    23A     -0.637122    24A     -0.596124
      25A     -0.568278    26A     -0.563644    27A     -0.532248
      28A     -0.525980    29A     -0.523389    30A     -0.517988
      31A     -0.506367    32A     -0.480925    33A     -0.452912
      34A     -0.452164    35A     -0.443470    36A     -0.426229
      37A     -0.415616    38A     -0.368107    39A     -0.337037
      40A     -0.332440    41A     -0.298325

  @DF-RKS Final Energy:  -463.12706819610310

   => Energetics <=

    Nuclear Repulsion Energy =            599.2700514168483323
    One-Electron Energy =               -1811.2922451746280785
    Two-Electron Energy =                 796.1435170491042754
    DFT Exchange-Correlation Energy =     -47.2364906280267363
    Empirical Dispersion Energy =          -0.0119008594006964
    VV10 Nonlocal Energy =                  0.0000000000000000
    Total Energy =                       -463.1270681961029823

  Dipole Moment: [D]
     X:    -0.0000      Y:     0.0000      Z:    -0.0000     Total:     0.0000

    Molecular point group: c1
  Basis Set: 6-311G
    Blend: 6-311G
  Basis Set: (6-311G AUX)
    Blend: CC-PVTZ-JKFIT

  -Total Gradient:
     Atom            X                  Y                   Z
    ------   -----------------  -----------------  -----------------
       1        0.000569309048     0.000034082472    -0.000013721178
       2       -0.000568993683    -0.000036598468     0.000013426022
       3        0.000350820767     0.001506832725    -0.001800160736
       4       -0.000376394500    -0.001006009713     0.002117426332
       5        0.000680994703    -0.001436436013     0.001758618031
       6       -0.000655963533     0.000937817431    -0.002075497759
       7        0.000004391577    -0.000123691729    -0.000157763483
       8        0.000012845304    -0.000193230006    -0.000044266480
       9       -0.000002664544     0.000123843476     0.000156257652
      10       -0.000014278798     0.000195270998     0.000045345007
      11       -0.000245118861    -0.000015266917     0.000010904656
      12        0.000245049573     0.000014777078    -0.000009313959
      13        0.000354704943    -0.000364126687    -0.000035351437
      14       -0.000329262080    -0.000208560815    -0.000327728953
      15        0.000302092954     0.000407358300     0.000011119596
      16       -0.000327469773     0.000164279061     0.000351284537
      17        0.000086263121    -0.000115983334     0.000005133407
      18       -0.000079451117    -0.000050123404    -0.000110444650
      19        0.000069277014     0.000126360926    -0.000011096836
      20       -0.000076151822     0.000039391918     0.000116088496
      21       -0.000053356183    -0.000003718044     0.000001858698
      22        0.000053353864     0.000003809933    -0.000002082427

  **** Optimization is complete! (in 3 steps) ****
    Final optimized geometry and variables:
    Molecular point group: c1

    Geometry (in Angstrom), charge = 0, multiplicity = 1:

    C            0.745972587048     0.049942617085    -0.027664367583
    C           -0.745972704818    -0.049927841074     0.027683630623
    C            1.441373763703     1.023998253087     0.706046705155
    C           -1.528548914785     0.983529947635     0.566432999965
    C            1.508762072366    -0.826472184856    -0.815544666893
    C           -1.421587967386    -1.181033347477    -0.456917841898
    C            2.828480148546     1.118093960335     0.655310663849
    C           -2.915756655718     0.891864951166     0.618703198700
    C            2.895971657132    -0.734828696581    -0.867828857801
    C           -2.808694699499    -1.275145368096    -0.406204547190
    C            3.565689955890     0.238727331880    -0.132375936948
    C           -3.565689129885    -0.238748241116     0.132362304180
    H            0.906091179635     1.703142010956     1.352902197640
    H           -1.062085785821     1.889387189501     0.924233506198
    H            1.022351039832    -1.574005837919    -1.424466847730
    H           -0.866358620176    -2.018477837959    -0.852638933411
    H            3.332812882742     1.875943763230     1.239569603959
    H           -3.488541870752     1.710305454063     1.033575192938
    H            3.452172330741    -1.421668058162    -1.491478666333
    H           -3.296443620109    -2.164609298938    -0.781705617928
    H            4.643795382313     0.310904614449    -0.172411713505
    H           -4.643794259024    -0.310938454310     0.172382174255

*** Psi4 exiting successfully. Buy a developer a beer!
