                               Psi4 1.3.2 release

  ==> Input File <==

--------------------------------------------------------------------------
molecule {
0 1
 C    0.745104    0.049717   -0.027381
 C   -0.745126   -0.049974    0.027991
 C    1.385706    1.094649   -0.769237
 C   -1.420309   -0.315567    1.263389
 C    1.572748   -0.896612    0.659703
 C   -1.538253    0.117409   -1.153337
 C    2.790609    1.181205   -0.816038
 C   -2.825120   -0.406925    1.305669
 C    2.976257   -0.794992    0.600851
 C   -2.942010    0.021662   -1.092264
 C    3.583673    0.240010   -0.133957
 C   -3.583837   -0.239297    0.132470
 H    0.790718    1.836278   -1.299401
 H   -0.852674   -0.442815    2.183550
 H    1.123241   -1.708268    1.229119
 H   -1.061350    0.314350   -2.111919
 H    3.265545    1.981075   -1.381601
 H   -3.326895   -0.606703    2.250934
 H    3.594571   -1.521656    1.125136
 H   -3.533566    0.148772   -1.997313
 H    4.669089    0.312723   -0.174872
 H   -4.669321   -0.311595    0.172404
}
set optking {
  frozen_dihedral = ("
    3 1 2 4
    3 1 2 6
    5 1 2 4
    5 1 2 6
  ")
}
set {
  geom_maxiter 400
  g_convergence GAU_LOOSE
  dynamic_level 1
}
memory 700MB
set_num_threads(3)
psi4_io.set_default_path("/home/daniele/PSI4_sctatch/Psi4-biphenyl")
for _ in range(1):
  try:
    set opt_coordinates both
    optimize('wb97x-d/6-311G')
    break
  except OptimizationConvergenceError:
    break
  else:
    try:
      set opt_coordinates cartesian
      optimize('wb97x-d/6-311G')
      break
    except OptimizationConvergenceError:
      pass
clean()
--------------------------------------------------------------------------

    Molecular point group: c1
  Charge       = 0
  Multiplicity = 1
  Basis Set: 6-311G
    Blend: 6-311G
  Basis Set: (6-311G AUX)
    Blend: CC-PVTZ-JKFIT
  @DF-RKS Final Energy:  -463.12452940004277
    Total Energy =                       -463.1245294000427748
    Molecular point group: c1
  Basis Set: 6-311G
    Blend: 6-311G
  Basis Set: (6-311G AUX)
    Blend: CC-PVTZ-JKFIT
  Basis Set: 6-311G
    Blend: 6-311G
  Basis Set: (6-311G AUX)
    Blend: CC-PVTZ-JKFIT
  @DF-RKS Final Energy:  -463.13015013118138
    Total Energy =                       -463.1301501311812672
  Basis Set: 6-311G
    Blend: 6-311G
  Basis Set: (6-311G AUX)
    Blend: CC-PVTZ-JKFIT
  Charge       = 0
  Multiplicity = 1
  Basis Set: 6-311G
    Blend: 6-311G
  Basis Set: (6-311G AUX)
    Blend: CC-PVTZ-JKFIT

    Orbital Energies [Eh]
    ---------------------

    Doubly Occupied:

       1A    -10.306328     2A    -10.306043     3A    -10.293762
       4A    -10.293758     5A    -10.293661     6A    -10.293660
       7A    -10.292754     8A    -10.292753     9A    -10.292719
      10A    -10.292718    11A    -10.292333    12A    -10.292333
      13A     -0.981297    14A     -0.959377    15A     -0.885987
      16A     -0.858029    17A     -0.850948    18A     -0.828265
      19A     -0.726278    20A     -0.720063    21A     -0.693607
      22A     -0.678767    23A     -0.632799    24A     -0.597831
      25A     -0.562374    26A     -0.560638    27A     -0.535072
      28A     -0.534913    29A     -0.518374    30A     -0.514233
      31A     -0.512137    32A     -0.471101    33A     -0.455209
      34A     -0.454208    35A     -0.437517    36A     -0.422469
      37A     -0.421810    38A     -0.357046    39A     -0.334971
      40A     -0.333652    41A     -0.305268

  @DF-RKS Final Energy:  -463.13023526856080

   => Energetics <=

    Nuclear Repulsion Energy =            599.9518052045165177
    One-Electron Energy =               -1812.7309553208679063
    Two-Electron Energy =                 796.8941106501068816
    DFT Exchange-Correlation Energy =     -47.2330687906491704
    Empirical Dispersion Energy =          -0.0121270116669667
    VV10 Nonlocal Energy =                  0.0000000000000000
    Total Energy =                       -463.1302352685607389

  Dipole Moment: [D]
     X:     0.0000      Y:    -0.0000      Z:     0.0000     Total:     0.0000

    Molecular point group: c1
  Basis Set: 6-311G
    Blend: 6-311G
  Basis Set: (6-311G AUX)
    Blend: CC-PVTZ-JKFIT

  -Total Gradient:
     Atom            X                  Y                   Z
    ------   -----------------  -----------------  -----------------
       1       -0.000349796945    -0.000032761306     0.000013020183
       2        0.000350533005     0.000028678836    -0.000003167679
       3        0.000210484751     0.000140663952    -0.000077719410
       4       -0.000213440390    -0.000020342950     0.000143562200
       5        0.000228631379    -0.000105662489     0.000054514131
       6       -0.000226815378    -0.000007126278    -0.000135416781
       7       -0.000006533016     0.000030846433    -0.000070989205
       8        0.000006214711    -0.000051781279     0.000057314569
       9        0.000004601365    -0.000029032901     0.000071141024
      10       -0.000004326207     0.000050698905    -0.000058582317
      11        0.000081167681     0.000003529440    -0.000001096911
      12       -0.000080811397    -0.000005783591     0.000004638967
      13        0.000062903231     0.000044748685     0.000111163184
      14       -0.000070811684     0.000115359988    -0.000007894580
      15        0.000061036957    -0.000037993378    -0.000115035244
      16       -0.000052986609    -0.000123825043     0.000013923279
      17        0.000006303064     0.000035452271     0.000028971152
      18       -0.000010488738     0.000039775299     0.000018797004
      19        0.000009612789    -0.000033399232    -0.000028765926
      20       -0.000005447403    -0.000041717984    -0.000018790179
      21       -0.000036689297    -0.000003139561     0.000001073908
      22        0.000036658889     0.000002821464    -0.000000647445

  **** Optimization is complete! (in 3 steps) ****
    Final optimized geometry and variables:
    Molecular point group: c1

    Geometry (in Angstrom), charge = 0, multiplicity = 1:

    C            0.740869126685     0.049551155709    -0.027528428360
    C           -0.740869194379    -0.049539524422     0.027542216805
    C            1.364425736952     1.072750690970    -0.754013826791
    C           -1.397528710656    -0.309425952737     1.237816369740
    C            1.546939398401    -0.877989117947     0.645840946921
    C           -1.513837643401     0.114677901268    -1.129649937240
    C            2.752560339922     1.164979718839    -0.806954590270
    C           -2.785572067355    -0.403852945127     1.289370537960
    C            2.935094248117    -0.784449153617     0.595674432559
    C           -2.902082287830     0.023312947438    -1.078099763594
    C            3.542970506383     0.237043032542    -0.131604030665
    C           -3.542969715091    -0.237054242668     0.131604114021
    H            0.756077084863     1.810999352380    -1.260043529018
    H           -0.816626377103    -0.415179532748     2.144755018280
    H            1.081278220028    -1.688099911426     1.191779820870
    H           -1.020728829693     0.292276227377    -2.076470016199
    H            3.216256527056     1.965593745010    -1.367551485231
    H           -3.275548280098    -0.598648987773     2.233957047236
    H            3.541309643389    -1.513458829579     1.116552380576
    H           -3.482016452508     0.146487040382    -1.982958944731
    H            4.621260141166     0.309188013533    -0.171653516289
    H           -4.621258554511    -0.309210819911     0.171656548957

*** Psi4 exiting successfully. Buy a developer a beer!
