                               Psi4 1.3.2 release

  ==> Input File <==

--------------------------------------------------------------------------
molecule {
0 1
 C    0.739702    0.049570   -0.027481
 C   -0.739778   -0.049496    0.027417
 C    1.373499    1.245399   -0.487242
 C   -1.428090    0.004148    1.278962
 C    1.559457   -1.048776    0.378265
 C   -1.505020   -0.200440   -1.170359
 C    2.778341    1.330861   -0.536632
 C   -2.832557   -0.090610    1.321816
 C    2.962899   -0.946168    0.322774
 C   -2.908950   -0.293338   -1.109348
 C    3.570779    0.239190   -0.133137
 C   -3.570904   -0.238694    0.132139
 H    0.771261    2.096283   -0.801360
 H   -0.867997    0.118973    2.205495
 H    1.100888   -1.970673    0.732089
 H   -1.004291   -0.244479   -2.136114
 H    3.253695    2.244947   -0.888063
 H   -3.349659   -0.048872    2.278801
 H    3.580549   -1.787010    0.633391
 H   -3.484847   -0.408112   -2.025963
 H    4.656296    0.311890   -0.173793
 H   -4.656473   -0.311149    0.172239
}
set optking {
  frozen_dihedral = ("
    3 1 2 4
    3 1 2 6
    5 1 2 4
    5 1 2 6
  ")
}
set {
  geom_maxiter 400
  g_convergence GAU_LOOSE
  dynamic_level 1
}
memory 700MB
set_num_threads(3)
psi4_io.set_default_path("/home/daniele/PSI4_sctatch/Psi4-biphenyl")
for _ in range(1):
  try:
    set opt_coordinates both
    optimize('wb97x-d/6-311G')
    break
  except OptimizationConvergenceError:
    break
  else:
    try:
      set opt_coordinates cartesian
      optimize('wb97x-d/6-311G')
      break
    except OptimizationConvergenceError:
      pass
clean()
--------------------------------------------------------------------------

    Molecular point group: c1
  Charge       = 0
  Multiplicity = 1
  Basis Set: 6-311G
    Blend: 6-311G
  Basis Set: (6-311G AUX)
    Blend: CC-PVTZ-JKFIT
  @DF-RKS Final Energy:  -463.12287952090662
    Total Energy =                       -463.1228795209065652
    Molecular point group: c1
  Basis Set: 6-311G
    Blend: 6-311G
  Basis Set: (6-311G AUX)
    Blend: CC-PVTZ-JKFIT
  Basis Set: 6-311G
    Blend: 6-311G
  Basis Set: (6-311G AUX)
    Blend: CC-PVTZ-JKFIT
  @DF-RKS Final Energy:  -463.12798881701571
    Total Energy =                       -463.1279888170157051
  Basis Set: 6-311G
    Blend: 6-311G
  Basis Set: (6-311G AUX)
    Blend: CC-PVTZ-JKFIT
  Charge       = 0
  Multiplicity = 1
  Basis Set: 6-311G
    Blend: 6-311G
  Basis Set: (6-311G AUX)
    Blend: CC-PVTZ-JKFIT

    Orbital Energies [Eh]
    ---------------------

    Doubly Occupied:

       1A    -10.304649     2A    -10.304366     3A    -10.293172
       4A    -10.293167     5A    -10.293037     6A    -10.293037
       7A    -10.292086     8A    -10.292085     9A    -10.291972
      10A    -10.291972    11A    -10.291884    12A    -10.291882
      13A     -0.980297    14A     -0.958919    15A     -0.884722
      16A     -0.854680    17A     -0.852138    18A     -0.828158
      19A     -0.724609    20A     -0.711318    21A     -0.701705
      22A     -0.677878    23A     -0.629927    24A     -0.599808
      25A     -0.557140    26A     -0.554410    27A     -0.545317
      28A     -0.536956    29A     -0.514809    30A     -0.513803
      31A     -0.511851    32A     -0.463211    33A     -0.457369
      34A     -0.456815    35A     -0.431707    36A     -0.427570
      37A     -0.417308    38A     -0.338769    39A     -0.336636
      40A     -0.330680    41A     -0.319321

  @DF-RKS Final Energy:  -463.12805829312759

   => Energetics <=

    Nuclear Repulsion Energy =            599.3333340953588504
    One-Electron Energy =               -1811.5628237575124331
    Two-Electron Energy =                 796.3446957147365310
    DFT Exchange-Correlation Energy =     -47.2313217581306901
    Empirical Dispersion Energy =          -0.0119425875798616
    VV10 Nonlocal Energy =                  0.0000000000000000
    Total Energy =                       -463.1280582931275944

  Dipole Moment: [D]
     X:    -0.0000      Y:     0.0000      Z:    -0.0000     Total:     0.0000

    Molecular point group: c1
  Basis Set: 6-311G
    Blend: 6-311G
  Basis Set: (6-311G AUX)
    Blend: CC-PVTZ-JKFIT

  -Total Gradient:
     Atom            X                  Y                   Z
    ------   -----------------  -----------------  -----------------
       1       -0.000780443640    -0.000056502134     0.000030200151
       2        0.000780354086     0.000051516525    -0.000023871637
       3        0.000335828032     0.000548606307     0.001029188001
       4       -0.000408514505     0.001143390707     0.000038061095
       5        0.000328696607    -0.000500902991    -0.001056739595
       6       -0.000253990366    -0.001185834468    -0.000017339852
       7       -0.000142895874     0.000111705135    -0.000048253601
       8        0.000135998567     0.000012644827     0.000125576470
       9       -0.000122865311    -0.000128265839     0.000057563756
      10        0.000126342065     0.000005042444    -0.000136329194
      11        0.000137326557     0.000007346767    -0.000003952247
      12       -0.000135893740    -0.000009211540     0.000006716925
      13        0.000020199883     0.000012949980     0.000007128970
      14       -0.000021663600     0.000011355738     0.000008100245
      15        0.000021397229    -0.000010715645    -0.000009248657
      16       -0.000020200506    -0.000013551008    -0.000006313061
      17       -0.000022665390     0.000022930620    -0.000002330506
      18        0.000021088055     0.000008702548     0.000022492589
      19       -0.000018701256    -0.000025429597     0.000004128894
      20        0.000020886011    -0.000006193773    -0.000024161059
      21       -0.000050849372    -0.000003016547     0.000001577143
      22        0.000050567001     0.000003437888    -0.000002214222

  **** Optimization is complete! (in 3 steps) ****
    Final optimized geometry and variables:
    Molecular point group: c1

    Geometry (in Angstrom), charge = 0, multiplicity = 1:

    C            0.743075463222     0.049715942642    -0.027561920521
    C           -0.743070189270    -0.049769212497     0.027613687121
    C            1.361851543284     1.221352676468    -0.478014833971
    C           -1.415044144906     0.002987900161     1.254060593698
    C            1.543886003292    -1.026865478631     0.370156018551
    C           -1.490688302020    -0.197516648026    -1.146166414591
    C            2.750709709017     1.314188799139    -0.530828072219
    C           -2.803851225029    -0.091156203228     1.305977441056
    C            2.932816396718    -0.933699175807     0.319819820965
    C           -2.879680884099    -0.289287647406    -1.095013278279
    C            3.539663669587     0.236975623093    -0.131415423335
    C           -3.539667373402    -0.236934632514     0.131380186502
    H            0.748243697674     2.058912653687    -0.783163471419
    H           -0.842970940167     0.121237362331     2.165041797064
    H            1.071479400233    -1.937153734760     0.715619685241
    H           -0.976746577720    -0.243062701398    -2.097442548246
    H            3.215243716972     2.226522225157    -0.880308876640
    H           -3.309907437825    -0.047862110172     2.261128532485
    H            3.539208814572    -1.774323261970     0.629530423390
    H           -3.444550713088    -0.404252766881    -2.010428749591
    H            4.618024290881     0.309186215528    -0.171460778818
    H           -4.618032186156    -0.309107952895     0.171391054024

*** Psi4 exiting successfully. Buy a developer a beer!
