                               Psi4 1.3.2 release

  ==> Input File <==

--------------------------------------------------------------------------
molecule {
0 1
 C    0.739494    0.049641   -0.027842
 C   -0.739604   -0.049252    0.027206
 C    1.428892   -0.025476   -1.277555
 C   -1.373653   -1.252289    0.466800
 C    1.503235    0.221807    1.167854
 C   -1.558742    1.056688   -0.358418
 C    2.833397    0.069460   -1.320687
 C   -2.778526   -1.337593    0.516220
 C    2.907207    0.314538    1.106666
 C   -2.962258    0.954184   -0.303251
 C    3.570510    0.238765   -0.133007
 C   -3.570626   -0.238527    0.132575
 H    0.869687   -0.156855   -2.202338
 H   -0.771622   -2.108891    0.765359
 H    1.001393    0.282377    2.132098
 H   -1.099693    1.984158   -0.696494
 H    3.351394    0.011511   -2.276290
 H   -3.254190   -2.257210    0.852289
 H    3.482093    0.445515    2.021671
 H   -3.579507    1.800727   -0.598645
 H    4.655969    0.311215   -0.173351
 H   -4.656056   -0.311056    0.173040
}
set optking {
  frozen_dihedral = ("
    3 1 2 4
    3 1 2 6
    5 1 2 4
    5 1 2 6
  ")
}
set {
  geom_maxiter 400
  g_convergence GAU_LOOSE
  dynamic_level 1
}
memory 700MB
set_num_threads(3)
psi4_io.set_default_path("/home/daniele/PSI4_sctatch/Psi4-biphenyl")
for _ in range(1):
  try:
    set opt_coordinates both
    optimize('wb97x-d/6-311G')
    break
  except OptimizationConvergenceError:
    break
  else:
    try:
      set opt_coordinates cartesian
      optimize('wb97x-d/6-311G')
      break
    except OptimizationConvergenceError:
      pass
clean()
--------------------------------------------------------------------------

    Molecular point group: c1
  Charge       = 0
  Multiplicity = 1
  Basis Set: 6-311G
    Blend: 6-311G
  Basis Set: (6-311G AUX)
    Blend: CC-PVTZ-JKFIT
  @DF-RKS Final Energy:  -463.12273114242754
    Total Energy =                       -463.1227311424274831
    Molecular point group: c1
  Basis Set: 6-311G
    Blend: 6-311G
  Basis Set: (6-311G AUX)
    Blend: CC-PVTZ-JKFIT
  Basis Set: 6-311G
    Blend: 6-311G
  Basis Set: (6-311G AUX)
    Blend: CC-PVTZ-JKFIT
  @DF-RKS Final Energy:  -463.12783225433026
    Total Energy =                       -463.1278322543303148
  Basis Set: 6-311G
    Blend: 6-311G
  Basis Set: (6-311G AUX)
    Blend: CC-PVTZ-JKFIT
  Charge       = 0
  Multiplicity = 1
  Basis Set: 6-311G
    Blend: 6-311G
  Basis Set: (6-311G AUX)
    Blend: CC-PVTZ-JKFIT

    Orbital Energies [Eh]
    ---------------------

    Doubly Occupied:

       1A    -10.304602     2A    -10.304319     3A    -10.293150
       4A    -10.293145     5A    -10.293014     6A    -10.293014
       7A    -10.292064     8A    -10.292063     9A    -10.291945
      10A    -10.291944    11A    -10.291861    12A    -10.291860
      13A     -0.980246    14A     -0.958902    15A     -0.884662
      16A     -0.854473    17A     -0.852250    18A     -0.828164
      19A     -0.724538    20A     -0.710701    21A     -0.702287
      22A     -0.677845    23A     -0.629831    24A     -0.599880
      25A     -0.556958    26A     -0.553904    27A     -0.545946
      28A     -0.537009    29A     -0.514684    30A     -0.513842
      31A     -0.511771    32A     -0.462770    33A     -0.457662
      34A     -0.456862    35A     -0.431404    36A     -0.427817
      37A     -0.417136    38A     -0.337494    39A     -0.336690
      40A     -0.330573    41A     -0.320439

  @DF-RKS Final Energy:  -463.12790151875430

   => Energetics <=

    Nuclear Repulsion Energy =            599.2945065561863203
    One-Electron Energy =               -1811.4878319202894090
    Two-Electron Energy =                 796.3085566340130299
    DFT Exchange-Correlation Energy =     -47.2312008402850836
    Empirical Dispersion Energy =          -0.0119319483790799
    VV10 Nonlocal Energy =                  0.0000000000000000
    Total Energy =                       -463.1279015187542996

  Dipole Moment: [D]
     X:     0.0000      Y:    -0.0001      Z:    -0.0000     Total:     0.0001

    Molecular point group: c1
  Basis Set: 6-311G
    Blend: 6-311G
  Basis Set: (6-311G AUX)
    Blend: CC-PVTZ-JKFIT

  -Total Gradient:
     Atom            X                  Y                   Z
    ------   -----------------  -----------------  -----------------
       1       -0.000795477397    -0.000044938770     0.000025630612
       2        0.000796623642     0.000048089799    -0.000021195498
       3        0.000406316595    -0.001014696105    -0.000028598986
       4       -0.000340323572    -0.000479048487    -0.000920255799
       5        0.000267009680     0.001054294382     0.000003738672
       6       -0.000337163894     0.000437661087     0.000940138936
       7       -0.000142455877    -0.000014987483    -0.000128804581
       8        0.000147389844    -0.000113603093     0.000046927104
       9       -0.000131670526    -0.000003408522     0.000138238145
      10        0.000130906576     0.000133182791    -0.000057811890
      11        0.000137958987     0.000009170988    -0.000003424218
      12       -0.000139194430    -0.000011573341     0.000006110254
      13        0.000021883786    -0.000009510053    -0.000010651443
      14       -0.000020823548    -0.000015199645    -0.000004522663
      15        0.000021372142     0.000011953528     0.000009103420
      16       -0.000021911878     0.000011876327     0.000006379789
      17       -0.000023296693    -0.000009306657    -0.000023334139
      18        0.000024607229    -0.000023508275     0.000002309506
      19       -0.000022619644     0.000006352585     0.000024982033
      20        0.000020647350     0.000026687715    -0.000004204593
      21       -0.000051100775    -0.000003351973     0.000001380528
      22        0.000051318855     0.000003928406    -0.000002105511

  **** Optimization is complete! (in 3 steps) ****
    Final optimized geometry and variables:
    Molecular point group: c1

    Geometry (in Angstrom), charge = 0, multiplicity = 1:

    C            0.743243310046     0.049740346828    -0.027626210283
    C           -0.743247465701    -0.049638004568     0.027680185035
    C            1.416448723010    -0.024038564534    -1.252241285382
    C           -1.362247123642    -1.228470084217     0.458392589021
    C            1.489401875337     0.218298825057     1.144194414196
    C           -1.543608768244     1.034286450003    -0.350306346212
    C            2.805313722807     0.069713637200    -1.304305336936
    C           -2.751154468567    -1.321292119763     0.511055673084
    C            2.878426732593     0.310134395696     1.092928008702
    C           -2.932580448294     0.941361541381    -0.299722129618
    C            3.539753655224     0.236552336164    -0.131648299147
    C           -3.539750448120    -0.236631333476     0.131607992219
    H            0.845274990929    -0.157946886587    -2.161608560839
    H           -0.748803061270    -2.071424235146     0.748626038070
    H            0.974344717849     0.279605241640     2.093971791548
    H           -1.070819538787     1.949862402962    -0.680927783339
    H            3.312475378542     0.010040786683    -2.257994161189
    H           -3.216009990036    -2.239219859360     0.845142315029
    H            3.442303209346     0.441344535859     2.006778683767
    H           -3.538763200358     1.787666310001    -0.594014323484
    H            4.618125722203     0.308596963880    -0.171767716108
    H           -4.618119851350    -0.308732745597     0.171683522680

*** Psi4 exiting successfully. Buy a developer a beer!
