                               Psi4 1.3.2 release

  ==> Input File <==

--------------------------------------------------------------------------
molecule {
0 1
 C    0.756348    0.050912   -0.028505
 C   -0.756476   -0.050377    0.027675
 C    1.430556    0.601808   -1.174081
 C   -1.417862   -0.892643    0.988757
 C    1.580438   -0.399857    1.061597
 C   -1.593387    0.691526   -0.877664
 C    2.835881    0.691951   -1.215833
 C   -2.823337   -0.978714    1.033359
 C    2.984478   -0.302444    0.998955
 C   -2.997232    0.589770   -0.817527
 C    3.611109    0.241456   -0.134439
 C   -3.611188   -0.241317    0.134114
 H    0.876740    0.951221   -2.041859
 H   -0.852922   -1.493826    1.696676
 H    1.143410   -0.815114    1.966163
 H   -1.167506    1.358843   -1.622756
 H    3.325444    1.111393   -2.093199
 H   -3.302840   -1.623162    1.768343
 H    3.588687   -0.648882    1.835860
 H   -3.611472    1.160966   -1.511701
 H    4.696545    0.313819   -0.174722
 H   -4.696617   -0.313889    0.174684
}
set optking {
  frozen_dihedral = ("
    3 1 2 4
    3 1 2 6
    5 1 2 4
    5 1 2 6
  ")
}
set {
  geom_maxiter 400
  g_convergence GAU_LOOSE
  dynamic_level 1
}
memory 700MB
set_num_threads(3)
psi4_io.set_default_path("/home/daniele/PSI4_sctatch/Psi4-biphenyl")
for _ in range(1):
  try:
    set opt_coordinates both
    optimize('wb97x-d/6-311G')
    break
  except OptimizationConvergenceError:
    break
  else:
    try:
      set opt_coordinates cartesian
      optimize('wb97x-d/6-311G')
      break
    except OptimizationConvergenceError:
      pass
clean()
--------------------------------------------------------------------------

    Molecular point group: c1
  Charge       = 0
  Multiplicity = 1
  Basis Set: 6-311G
    Blend: 6-311G
  Basis Set: (6-311G AUX)
    Blend: CC-PVTZ-JKFIT
  @DF-RKS Final Energy:  -463.12026236110296
    Total Energy =                       -463.1202623611029594
    Molecular point group: c1
  Basis Set: 6-311G
    Blend: 6-311G
  Basis Set: (6-311G AUX)
    Blend: CC-PVTZ-JKFIT
  Basis Set: 6-311G
    Blend: 6-311G
  Basis Set: (6-311G AUX)
    Blend: CC-PVTZ-JKFIT
  @DF-RKS Final Energy:  -463.12718018840008
    Total Energy =                       -463.1271801884000183
  Basis Set: 6-311G
    Blend: 6-311G
  Basis Set: (6-311G AUX)
    Blend: CC-PVTZ-JKFIT
  Charge       = 0
  Multiplicity = 1
  Basis Set: 6-311G
    Blend: 6-311G
  Basis Set: (6-311G AUX)
    Blend: CC-PVTZ-JKFIT

    Orbital Energies [Eh]
    ---------------------

    Doubly Occupied:

       1A    -10.309994     2A    -10.309733     3A    -10.293875
       4A    -10.293870     5A    -10.293812     6A    -10.293808
       7A    -10.293209     8A    -10.293206     9A    -10.293157
      10A    -10.293155    11A    -10.292274    12A    -10.292272
      13A     -0.981250    14A     -0.960122    15A     -0.886225
      16A     -0.860132    17A     -0.850504    18A     -0.829384
      19A     -0.728061    20A     -0.724288    21A     -0.688374
      22A     -0.680900    23A     -0.636886    24A     -0.596170
      25A     -0.568017    26A     -0.563546    27A     -0.532390
      28A     -0.526335    29A     -0.523130    30A     -0.517782
      31A     -0.506866    32A     -0.480306    33A     -0.452971
      34A     -0.452340    35A     -0.443188    36A     -0.426035
      37A     -0.415977    38A     -0.367725    39A     -0.336882
      40A     -0.332581    41A     -0.298541

  @DF-RKS Final Energy:  -463.12736505194073

   => Energetics <=

    Nuclear Repulsion Energy =            599.3390622206777607
    One-Electron Energy =               -1811.4338115403136271
    Two-Electron Energy =                 796.2155154248816871
    DFT Exchange-Correlation Energy =     -47.2362131760305743
    Empirical Dispersion Energy =          -0.0119179811559494
    VV10 Nonlocal Energy =                  0.0000000000000000
    Total Energy =                       -463.1273650519406715

  Dipole Moment: [D]
     X:     0.0000      Y:    -0.0000      Z:    -0.0000     Total:     0.0000

    Molecular point group: c1
  Basis Set: 6-311G
    Blend: 6-311G
  Basis Set: (6-311G AUX)
    Blend: CC-PVTZ-JKFIT

  -Total Gradient:
     Atom            X                  Y                   Z
    ------   -----------------  -----------------  -----------------
       1        0.000510970463     0.000043523012    -0.000018903962
       2       -0.000510962553    -0.000038971889     0.000017265867
       3        0.000374582541     0.002252416347     0.000967299254
       4       -0.000546699481     0.001809150854     0.001612690172
       5        0.000597099694    -0.002196850291    -0.000999529974
       6       -0.000424570607    -0.001872240156    -0.001572500058
       7        0.000012823106    -0.000018088942     0.000174338732
       8       -0.000023000092     0.000151932532    -0.000095594815
       9       -0.000000345323     0.000021555569    -0.000180546289
      10        0.000009591724    -0.000149947518     0.000091685487
      11       -0.000217134243    -0.000014437409     0.000010523249
      12        0.000217342038     0.000012672437    -0.000007331129
      13        0.000342564253    -0.000312222662     0.000142421754
      14       -0.000324582505    -0.000023038677    -0.000356106564
      15        0.000282940864     0.000353046728    -0.000167654437
      16       -0.000301001269    -0.000017217864     0.000379875292
      17        0.000081304856    -0.000109819867     0.000032111469
      18       -0.000074120626    -0.000023710467    -0.000115540058
      19        0.000062314705     0.000119299088    -0.000036045571
      20       -0.000069195373     0.000012949627     0.000121512041
      21       -0.000051814378    -0.000003973115     0.000001483716
      22        0.000051890549     0.000003993193    -0.000001477428

  **** Optimization is complete! (in 3 steps) ****
    Final optimized geometry and variables:
    Molecular point group: c1

    Geometry (in Angstrom), charge = 0, multiplicity = 1:

    C            0.745510493104     0.049899475547    -0.027717362897
    C           -0.745515833365    -0.049820466969     0.027701307828
    C            1.400415209400     0.587763884430    -1.146708849858
    C           -1.388051634571    -0.872250044694     0.966370123324
    C            1.546978424182    -0.390668594737     1.037130989501
    C           -1.559346921977     0.675218462711    -0.856803652220
    C            2.787537763900     0.681292222486    -1.199383342844
    C           -2.775176607959    -0.965721689421     1.019132802072
    C            2.934289825047    -0.298723710045     0.986699005058
    C           -2.946646478387     0.583088367613    -0.806438298464
    C            3.564102352656     0.238298447835    -0.132469154741
    C           -3.564097535489    -0.238363660404     0.132484240965
    H            0.831411540536     0.909589299596    -2.006523678866
    H           -0.806754814762    -1.476853160487     1.646931987504
    H            1.090888512665    -0.781057368594     1.935013437163
    H           -1.115553663886     1.348422598408    -1.575455947427
    H            3.260901926222     1.093407956548    -2.080379128670
    H           -3.238201349537    -1.615469948152     1.749546017066
    H            3.522015742027    -0.639928530672     1.828261026366
    H           -3.544705536205     1.161856042637    -1.497394152571
    H            4.642225352046     0.310361076860    -0.172539623043
    H           -4.642216475494    -0.310479115630     0.172566165535

*** Psi4 exiting successfully. Buy a developer a beer!
