                               Psi4 1.3.2 release

  ==> Input File <==

--------------------------------------------------------------------------
molecule {
0 1
 C    0.744610    0.049935   -0.027884
 C   -0.744719   -0.049723    0.027389
 C    1.404493    1.309809    0.143678
 C   -1.487524    0.599605    1.066019
 C    1.551925   -1.111660   -0.253883
 C   -1.469092   -0.797332   -0.956743
 C    2.809355    1.394169    0.090570
 C   -2.891778    0.500691    1.109676
 C    2.955573   -1.007863   -0.305154
 C   -2.873386   -0.886293   -0.896231
 C    3.582831    0.240082   -0.133353
 C   -3.582946   -0.239648    0.132699
 H    0.824211    2.215616    0.311232
 H   -0.971462    1.171640    1.835276
 H    1.086718   -2.087538   -0.382581
 H   -0.939648   -1.299374   -1.764793
 H    3.299471    2.357293    0.221969
 H   -3.445373    0.998279    1.904056
 H    3.558585   -1.897760   -0.477157
 H   -3.412910   -1.457025   -1.650066
 H    4.668274    0.312820   -0.173772
 H   -4.668409   -0.312278    0.172948
}
set optking {
  frozen_dihedral = ("
    3 1 2 4
    3 1 2 6
    5 1 2 4
    5 1 2 6
  ")
}
set {
  geom_maxiter 400
  g_convergence GAU_LOOSE
  dynamic_level 1
}
memory 700MB
set_num_threads(3)
psi4_io.set_default_path("/home/daniele/PSI4_sctatch/Psi4-biphenyl")
for _ in range(1):
  try:
    set opt_coordinates both
    optimize('wb97x-d/6-311G')
    break
  except OptimizationConvergenceError:
    break
  else:
    try:
      set opt_coordinates cartesian
      optimize('wb97x-d/6-311G')
      break
    except OptimizationConvergenceError:
      pass
clean()
--------------------------------------------------------------------------

    Molecular point group: c1
  Charge       = 0
  Multiplicity = 1
  Basis Set: 6-311G
    Blend: 6-311G
  Basis Set: (6-311G AUX)
    Blend: CC-PVTZ-JKFIT
  @DF-RKS Final Energy:  -463.12450148308801
    Total Energy =                       -463.1245014830880109
    Molecular point group: c1
  Basis Set: 6-311G
    Blend: 6-311G
  Basis Set: (6-311G AUX)
    Blend: CC-PVTZ-JKFIT
  Basis Set: 6-311G
    Blend: 6-311G
  Basis Set: (6-311G AUX)
    Blend: CC-PVTZ-JKFIT
  @DF-RKS Final Energy:  -463.13011049890258
    Total Energy =                       -463.1301104989025248
  Basis Set: 6-311G
    Blend: 6-311G
  Basis Set: (6-311G AUX)
    Blend: CC-PVTZ-JKFIT
  Charge       = 0
  Multiplicity = 1
  Basis Set: 6-311G
    Blend: 6-311G
  Basis Set: (6-311G AUX)
    Blend: CC-PVTZ-JKFIT

    Orbital Energies [Eh]
    ---------------------

    Doubly Occupied:

       1A    -10.306138     2A    -10.305853     3A    -10.293727
       4A    -10.293722     5A    -10.293623     6A    -10.293622
       7A    -10.292701     8A    -10.292700     9A    -10.292664
      10A    -10.292664    11A    -10.292314    12A    -10.292314
      13A     -0.981249    14A     -0.959331    15A     -0.885915
      16A     -0.857813    17A     -0.851004    18A     -0.828227
      19A     -0.726147    20A     -0.719560    21A     -0.694095
      22A     -0.678669    23A     -0.632525    24A     -0.597994
      25A     -0.561917    26A     -0.560314    27A     -0.535638
      28A     -0.535256    29A     -0.518034    30A     -0.514003
      31A     -0.512355    32A     -0.470498    33A     -0.455378
      34A     -0.454341    35A     -0.437076    36A     -0.422897
      37A     -0.421447    38A     -0.355978    39A     -0.335131
      40A     -0.333402    41A     -0.306005

  @DF-RKS Final Energy:  -463.13019298167990

   => Energetics <=

    Nuclear Repulsion Energy =            599.9376073917416079
    One-Electron Energy =               -1812.7082565069417797
    Two-Electron Energy =                 796.8854651870530006
    DFT Exchange-Correlation Energy =     -47.2328857692501813
    Empirical Dispersion Energy =          -0.0121232842824837
    VV10 Nonlocal Energy =                  0.0000000000000000
    Total Energy =                       -463.1301929816799543

  Dipole Moment: [D]
     X:     0.0000      Y:    -0.0001      Z:     0.0001     Total:     0.0001

    Molecular point group: c1
  Basis Set: 6-311G
    Blend: 6-311G
  Basis Set: (6-311G AUX)
    Blend: CC-PVTZ-JKFIT

  -Total Gradient:
     Atom            X                  Y                   Z
    ------   -----------------  -----------------  -----------------
       1       -0.000396036733    -0.000032211873     0.000016545426
       2        0.000395532852     0.000034816858    -0.000018197560
       3        0.000197883077     0.000178034405    -0.000159157046
       4       -0.000200216166    -0.000082178838     0.000220510172
       5        0.000228874177    -0.000147009107     0.000142406011
       6       -0.000225599429     0.000049763419    -0.000203269507
       7       -0.000009263877     0.000065128203     0.000042475067
       8        0.000002121684     0.000065818548     0.000040668740
       9       -0.000002253239    -0.000065218003    -0.000041986364
      10        0.000008228908    -0.000065833338    -0.000041012196
      11        0.000094790536     0.000005480149    -0.000003545972
      12       -0.000094185224    -0.000006054657     0.000004230960
      13        0.000055377258    -0.000005405184    -0.000106462053
      14       -0.000051232088    -0.000101987236     0.000038663873
      15        0.000062446768     0.000013092396     0.000102066846
      16       -0.000066562482     0.000093878536    -0.000033936788
      17        0.000001782228     0.000021713975    -0.000037041247
      18       -0.000001677387    -0.000024521994     0.000035403843
      19        0.000007436143    -0.000021009850     0.000036889885
      20       -0.000007364298     0.000023765925    -0.000035076233
      21       -0.000038424246    -0.000002647397     0.000001423860
      22        0.000038332492     0.000002648434    -0.000001679897

  **** Optimization is complete! (in 3 steps) ****
    Final optimized geometry and variables:
    Molecular point group: c1

    Geometry (in Angstrom), charge = 0, multiplicity = 1:

    C            0.740825233591     0.049619883413    -0.027524472608
    C           -0.740832296219    -0.049552113266     0.027465873608
    C            1.382825269232     1.283559627005     0.140700668302
    C           -1.464027635547     0.586877006595     1.044819510709
    C            1.527166886042    -1.088703203882    -0.248760789974
    C           -1.445970102544    -0.781677354882    -0.936816210562
    C            2.771063563465     1.376558435509     0.090292545849
    C           -2.852310080802     0.494918977187     1.095978149274
    C            2.915336029135    -0.995852568402    -0.301370999291
    C           -2.834084292238    -0.875680984156    -0.884848080842
    C            3.542184502369     0.237140038456    -0.131473626497
    C           -3.542178410957    -0.237195517123     0.131527129046
    H            0.787585625818     2.174958008472     0.290251189231
    H           -0.931396129748     1.137499083651     1.809270315712
    H            1.046476154526    -2.052126537124    -0.358387759795
    H           -0.902672410489    -1.260259801621    -1.741212078931
    H            3.249466155545     2.338699967675     0.215589210375
    H           -3.393853060260     0.987229448418     1.892624886975
    H            3.506980067809    -1.886367569189    -0.466370230831
    H           -3.362581062663    -1.439677399182    -1.641738829992
    H            4.620479385606     0.309318071172    -0.171481803247
    H           -4.620468836806    -0.309418850579     0.171577776375

*** Psi4 exiting successfully. Buy a developer a beer!
