                               Psi4 1.3.2 release

  ==> Input File <==

--------------------------------------------------------------------------
molecule {
0 1
 C    0.744959    0.049892   -0.028035
 C   -0.745055   -0.049880    0.027275
 C    1.468224    0.814952    0.943740
 C   -1.551825    1.108063    0.274422
 C    1.490149   -0.616714   -1.054153
 C   -1.406758   -1.305929   -0.165266
 C    2.872550    0.903960    0.883368
 C   -2.955508    1.004467    0.325541
 C    2.894423   -0.517530   -1.097885
 C   -2.811682   -1.390169   -0.112070
 C    3.583814    0.240187   -0.133156
 C   -3.583936   -0.239613    0.132769
 H    0.938601    1.330407    1.742981
 H   -1.086856    2.081660    0.419013
 H    0.976464   -1.202297   -1.814646
 H   -0.828399   -2.209766   -0.348852
 H    3.410940    1.488284    1.627683
 H   -3.557801    1.891633    0.513933
 H    3.449522   -1.028505   -1.882696
 H   -3.302896   -2.350400   -0.259787
 H    4.669310    0.313010   -0.173497
 H   -4.669437   -0.312269    0.173211
}
set optking {
  frozen_dihedral = ("
    3 1 2 4
    3 1 2 6
    5 1 2 4
    5 1 2 6
  ")
}
set {
  geom_maxiter 400
  g_convergence GAU_LOOSE
  dynamic_level 1
}
memory 700MB
set_num_threads(3)
psi4_io.set_default_path("/home/daniele/PSI4_sctatch/Psi4-biphenyl")
for _ in range(1):
  try:
    set opt_coordinates both
    optimize('wb97x-d/6-311G')
    break
  except OptimizationConvergenceError:
    break
  else:
    try:
      set opt_coordinates cartesian
      optimize('wb97x-d/6-311G')
      break
    except OptimizationConvergenceError:
      pass
clean()
--------------------------------------------------------------------------

    Molecular point group: c1
  Charge       = 0
  Multiplicity = 1
  Basis Set: 6-311G
    Blend: 6-311G
  Basis Set: (6-311G AUX)
    Blend: CC-PVTZ-JKFIT
  @DF-RKS Final Energy:  -463.12451696131473
    Total Energy =                       -463.1245169613146118
    Molecular point group: c1
  Basis Set: 6-311G
    Blend: 6-311G
  Basis Set: (6-311G AUX)
    Blend: CC-PVTZ-JKFIT
  Basis Set: 6-311G
    Blend: 6-311G
  Basis Set: (6-311G AUX)
    Blend: CC-PVTZ-JKFIT
  @DF-RKS Final Energy:  -463.12451696231028
    Total Energy =                       -463.1245169623102242
  Basis Set: 6-311G
    Blend: 6-311G
  Basis Set: (6-311G AUX)
    Blend: CC-PVTZ-JKFIT
  Basis Set: 6-311G
    Blend: 6-311G
  Basis Set: (6-311G AUX)
    Blend: CC-PVTZ-JKFIT
  @DF-RKS Final Energy:  -463.13015077748975
    Total Energy =                       -463.1301507774896322
  Basis Set: 6-311G
    Blend: 6-311G
  Basis Set: (6-311G AUX)
    Blend: CC-PVTZ-JKFIT
  Charge       = 0
  Multiplicity = 1
  Basis Set: 6-311G
    Blend: 6-311G
  Basis Set: (6-311G AUX)
    Blend: CC-PVTZ-JKFIT

    Orbital Energies [Eh]
    ---------------------

    Doubly Occupied:

       1A    -10.306329     2A    -10.306044     3A    -10.293762
       4A    -10.293758     5A    -10.293661     6A    -10.293660
       7A    -10.292754     8A    -10.292753     9A    -10.292719
      10A    -10.292718    11A    -10.292333    12A    -10.292333
      13A     -0.981297    14A     -0.959376    15A     -0.885989
      16A     -0.858028    17A     -0.850946    18A     -0.828266
      19A     -0.726280    20A     -0.720063    21A     -0.693605
      22A     -0.678769    23A     -0.632801    24A     -0.597831
      25A     -0.562376    26A     -0.560639    27A     -0.535073
      28A     -0.534911    29A     -0.518373    30A     -0.514236
      31A     -0.512134    32A     -0.471104    33A     -0.455209
      34A     -0.454206    35A     -0.437520    36A     -0.422468
      37A     -0.421812    38A     -0.357050    39A     -0.334968
      40A     -0.333652    41A     -0.305266

  @DF-RKS Final Energy:  -463.13023532398927

   => Energetics <=

    Nuclear Repulsion Energy =            599.9517294810913199
    One-Electron Energy =               -1812.7307894584284895
    Two-Electron Energy =                 796.8940222788189658
    DFT Exchange-Correlation Energy =     -47.2330706127702413
    Empirical Dispersion Energy =          -0.0121270127009224
    VV10 Nonlocal Energy =                  0.0000000000000000
    Total Energy =                       -463.1302353239892682

  Dipole Moment: [D]
     X:     0.0000      Y:    -0.0000      Z:     0.0000     Total:     0.0000

    Molecular point group: c1
  Basis Set: 6-311G
    Blend: 6-311G
  Basis Set: (6-311G AUX)
    Blend: CC-PVTZ-JKFIT

  -Total Gradient:
     Atom            X                  Y                   Z
    ------   -----------------  -----------------  -----------------
       1       -0.000357498941    -0.000026624330     0.000011169958
       2        0.000357880953     0.000019262393    -0.000017851060
       3        0.000211589264     0.000080941233     0.000113175353
       4       -0.000221229028     0.000123829626     0.000017448613
       5        0.000212907093    -0.000049276524    -0.000123593251
       6       -0.000204180145    -0.000145439148     0.000000972789
       7       -0.000001526066     0.000068470315     0.000030284872
       8       -0.000003043142     0.000056863779     0.000049076573
       9        0.000003676468    -0.000071673441    -0.000035585236
      10        0.000001899625    -0.000062685701    -0.000049491006
      11        0.000085157312     0.000009488188     0.000000715182
      12       -0.000085734733    -0.000000960985     0.000004813684
      13        0.000074909778    -0.000106458203     0.000037774735
      14       -0.000069512388    -0.000015816197    -0.000115195124
      15        0.000056216252     0.000115328044    -0.000043969995
      16       -0.000061492444     0.000005747274     0.000120788582
      17        0.000011257942    -0.000029016227     0.000035769157
      18       -0.000010958980     0.000019250829    -0.000041909186
      19        0.000004421126     0.000030062507    -0.000035399910
      20       -0.000004855363    -0.000019510057     0.000042127465
      21       -0.000037443583    -0.000003300123     0.000000702034
      22        0.000037556780     0.000001536762    -0.000001841417

  **** Optimization is complete! (in 3 steps) ****
    Final optimized geometry and variables:
    Molecular point group: c1

    Geometry (in Angstrom), charge = 0, multiplicity = 1:

    C            0.740860586008     0.049585670900    -0.027507008934
    C           -0.740861637265    -0.049598706066     0.027454280888
    C            1.445031358294     0.798706048563     0.924588176495
    C           -1.526834332493     1.084971932601     0.269368576566
    C            1.466330959268    -0.603824162052    -1.032622503458
    C           -1.384529313058    -1.279859583348    -0.161374768569
    C            2.833067490750     0.892980216967     0.872477984556
    C           -2.914927591048     0.992068869991     0.322384887772
    C            2.854592327563    -0.512246253038    -1.083487317311
    C           -2.772730827989    -1.372797472234    -0.111334693265
    C            3.542981181292     0.237173807810    -0.131433721697
    C           -3.542980470363    -0.237160466053     0.131478450253
    H            0.901579279689     1.289892706155     1.721178806770
    H           -1.046477710830     2.046718325886     0.393716945059
    H            0.935837950432    -1.166895427317    -1.789388305286
    H           -0.790940698254    -2.169725166675    -0.325564980462
    H            3.360206677194     1.470546424579     1.620013995131
    H           -3.505707434636     1.879961414369     0.503753784842
    H            3.397344753233    -1.018196916156    -1.870697005272
    H           -3.251841954299    -2.332303404852    -0.252990343769
    H            4.621269401902     0.309348475318    -0.171430491710
    H           -4.621267060995    -0.309345288732     0.171498761763

*** Psi4 exiting successfully. Buy a developer a beer!
