                               Psi4 1.3.2 release

  ==> Input File <==

--------------------------------------------------------------------------
molecule {
0 1
 C    0.740869    0.049551   -0.027528
 C   -0.740869   -0.049540    0.027542
 C    1.364426    1.072751   -0.754014
 C   -1.397529   -0.309426    1.237816
 C    1.546939   -0.877989    0.645841
 C   -1.513838    0.114678   -1.129650
 C    2.752560    1.164980   -0.806955
 C   -2.785572   -0.403853    1.289371
 C    2.935094   -0.784449    0.595674
 C   -2.902082    0.023313   -1.078100
 C    3.542971    0.237043   -0.131604
 C   -3.542970   -0.237054    0.131604
 H    0.756077    1.810999   -1.260044
 H   -0.816626   -0.415180    2.144755
 H    1.081278   -1.688100    1.191780
 H   -1.020729    0.292276   -2.076470
 H    3.216257    1.965594   -1.367551
 H   -3.275548   -0.598649    2.233957
 H    3.541310   -1.513459    1.116552
 H   -3.482016    0.146487   -1.982959
 H    4.621260    0.309188   -0.171654
 H   -4.621259   -0.309211    0.171657
}
memory 700MB
set_num_threads(3)
psi4_io.set_default_path("/home/daniele/PSI4_sctatch/Psi4-biphenyl")
set freeze_core True
E, wfn = energy('wb97x-d/6-311+G*',return_wfn=True)
oeprop(wfn,"WIBERG_LOWDIN_INDICES")
clean()
--------------------------------------------------------------------------

    Molecular point group: c1

    Geometry (in Angstrom), charge = 0, multiplicity = 1:

       Center              X                  Y                   Z               Mass
    ------------   -----------------  -----------------  -----------------  -----------------
         C            0.740869051719     0.049550970342    -0.027527916795    12.000000000000
         C           -0.740868948281    -0.049540029658     0.027542083205    12.000000000000
         C            1.364426051719     1.072750970342    -0.754013916795    12.000000000000
         C           -1.397528948281    -0.309426029658     1.237816083205    12.000000000000
         C            1.546939051719    -0.877989029658     0.645841083205    12.000000000000
         C           -1.513837948281     0.114677970342    -1.129649916795    12.000000000000
         C            2.752560051719     1.164979970342    -0.806954916795    12.000000000000
         C           -2.785571948281    -0.403853029658     1.289371083205    12.000000000000
         C            2.935094051719    -0.784449029658     0.595674083205    12.000000000000
         C           -2.902081948281     0.023312970342    -1.078099916795    12.000000000000
         C            3.542971051719     0.237042970342    -0.131603916795    12.000000000000
         C           -3.542969948281    -0.237054029658     0.131604083205    12.000000000000
         H            0.756077051719     1.810998970342    -1.260043916795     1.007825032230
         H           -0.816625948281    -0.415180029658     2.144755083205     1.007825032230
         H            1.081278051719    -1.688100029658     1.191780083205     1.007825032230
         H           -1.020728948281     0.292275970342    -2.076469916795     1.007825032230
         H            3.216257051719     1.965593970342    -1.367550916795     1.007825032230
         H           -3.275547948281    -0.598649029658     2.233957083205     1.007825032230
         H            3.541310051719    -1.513459029658     1.116552083205     1.007825032230
         H           -3.482015948281     0.146486970342    -1.982958916795     1.007825032230
         H            4.621260051719     0.309187970342    -0.171653916795     1.007825032230
         H           -4.621258948281    -0.309211029658     0.171657083205     1.007825032230

  Charge       = 0
  Multiplicity = 1
  Basis Set: 6-311+G*
    Blend: 6-311+G*
  Basis Set: (6-311+G* AUX)
    Blend: HEAVY-AUG-CC-PVTZ-JKFIT

    Orbital Energies [Eh]
    ---------------------

    Doubly Occupied:

       1A    -10.303036     2A    -10.302740     3A    -10.291995
       4A    -10.291989     5A    -10.291900     6A    -10.291900
       7A    -10.291071     8A    -10.291066     9A    -10.291030
      10A    -10.291029    11A    -10.290615    12A    -10.290615
      13A     -0.977076    14A     -0.954537    15A     -0.882784
      16A     -0.854952    17A     -0.847856    18A     -0.824606
      19A     -0.723837    20A     -0.717673    21A     -0.691566
      22A     -0.675837    23A     -0.629379    24A     -0.595535
      25A     -0.563777    26A     -0.556121    27A     -0.534641
      28A     -0.530539    29A     -0.515350    30A     -0.510492
      31A     -0.509245    32A     -0.469476    33A     -0.454420
      34A     -0.453183    35A     -0.437472    36A     -0.422771
      37A     -0.421434    38A     -0.356816    39A     -0.334833
      40A     -0.333523    41A     -0.305609

  @DF-RKS Final Energy:  -463.23440854781177

   => Energetics <=

    Nuclear Repulsion Energy =            599.9517872143580917
    One-Electron Energy =               -1813.0963658343871430
    Two-Electron Energy =                 797.1669835224904546
    DFT Exchange-Correlation Energy =     -47.2446864384516090
    Empirical Dispersion Energy =          -0.0121270118216008
    VV10 Nonlocal Energy =                  0.0000000000000000
    Total Energy =                       -463.2344085478117677

  Dipole Moment: [D]
     X:    -0.0000      Y:    -0.0000      Z:     0.0000     Total:     0.0001

*** Psi4 exiting successfully. Buy a developer a beer!
