                               Psi4 1.3.2 release

  ==> Input File <==

--------------------------------------------------------------------------
molecule {
0 1
 C    0.744402    0.049868   -0.027874
 C   -0.744497   -0.049657    0.027500
 C    1.419555    0.294291   -1.267362
 C   -1.384609   -1.106712    0.751828
 C    1.535950   -0.096557    1.156944
 C   -1.571102    0.909490   -0.642328
 C    2.824192    0.387356   -1.309919
 C   -2.789580   -1.192130    0.799024
 C    2.939750   -0.001797    1.094918
 C   -2.974585    0.807262   -0.585246
 C    3.582198    0.239639   -0.133568
 C   -3.582320   -0.239239    0.132866
 H    0.851966    0.404858   -2.189774
 H   -0.789380   -1.857762    1.268442
 H    1.057955   -0.277154    2.118280
 H   -1.120737    1.730463   -1.197663
 H    3.326315    0.573010   -2.257814
 H   -3.264884   -2.000220    1.352374
 H    3.530908   -0.114388    2.002101
 H   -3.592567    1.542327   -1.097958
 H    4.667628    0.312316   -0.173965
 H   -4.667763   -0.311825    0.173093
}
set optking {
  frozen_dihedral = ("
    3 1 2 4
    3 1 2 6
    5 1 2 4
    5 1 2 6
  ")
}
set {
  geom_maxiter 400
  g_convergence GAU_LOOSE
  dynamic_level 1
}
memory 700MB
set_num_threads(3)
psi4_io.set_default_path("/home/daniele/PSI4_sctatch/Psi4-biphenyl")
for _ in range(1):
  try:
    set opt_coordinates both
    optimize('wb97x-d/6-311G')
    break
  except OptimizationConvergenceError:
    break
  else:
    try:
      set opt_coordinates cartesian
      optimize('wb97x-d/6-311G')
      break
    except OptimizationConvergenceError:
      pass
clean()
--------------------------------------------------------------------------

    Molecular point group: c1
  Charge       = 0
  Multiplicity = 1
  Basis Set: 6-311G
    Blend: 6-311G
  Basis Set: (6-311G AUX)
    Blend: CC-PVTZ-JKFIT
  @DF-RKS Final Energy:  -463.12454074669097
    Total Energy =                       -463.1245407466910819
    Molecular point group: c1
  Basis Set: 6-311G
    Blend: 6-311G
  Basis Set: (6-311G AUX)
    Blend: CC-PVTZ-JKFIT
  Basis Set: 6-311G
    Blend: 6-311G
  Basis Set: (6-311G AUX)
    Blend: CC-PVTZ-JKFIT
  @DF-RKS Final Energy:  -463.13011141008593
    Total Energy =                       -463.1301114100859877
  Basis Set: 6-311G
    Blend: 6-311G
  Basis Set: (6-311G AUX)
    Blend: CC-PVTZ-JKFIT
  Charge       = 0
  Multiplicity = 1
  Basis Set: 6-311G
    Blend: 6-311G
  Basis Set: (6-311G AUX)
    Blend: CC-PVTZ-JKFIT

    Orbital Energies [Eh]
    ---------------------

    Doubly Occupied:

       1A    -10.306136     2A    -10.305851     3A    -10.293727
       4A    -10.293722     5A    -10.293623     6A    -10.293622
       7A    -10.292700     8A    -10.292700     9A    -10.292664
      10A    -10.292663    11A    -10.292314    12A    -10.292314
      13A     -0.981250    14A     -0.959331    15A     -0.885915
      16A     -0.857815    17A     -0.851005    18A     -0.828226
      19A     -0.726147    20A     -0.719560    21A     -0.694095
      22A     -0.678668    23A     -0.632525    24A     -0.597993
      25A     -0.561917    26A     -0.560314    27A     -0.535638
      28A     -0.535256    29A     -0.518036    30A     -0.514001
      31A     -0.512356    32A     -0.470499    33A     -0.455377
      34A     -0.454340    35A     -0.437077    36A     -0.422898
      37A     -0.421447    38A     -0.355976    39A     -0.335132
      40A     -0.333403    41A     -0.306004

  @DF-RKS Final Energy:  -463.13019302621069

   => Energetics <=

    Nuclear Repulsion Energy =            599.9387789062756156
    One-Electron Energy =               -1812.7106013663826616
    Two-Electron Energy =                 796.8866440290248647
    DFT Exchange-Correlation Energy =     -47.2328912580659335
    Empirical Dispersion Energy =          -0.0121233370623831
    VV10 Nonlocal Energy =                  0.0000000000000000
    Total Energy =                       -463.1301930262106339

  Dipole Moment: [D]
     X:     0.0000      Y:    -0.0000      Z:     0.0000     Total:     0.0000

    Molecular point group: c1
  Basis Set: 6-311G
    Blend: 6-311G
  Basis Set: (6-311G AUX)
    Blend: CC-PVTZ-JKFIT

  -Total Gradient:
     Atom            X                  Y                   Z
    ------   -----------------  -----------------  -----------------
       1       -0.000399779803    -0.000021212294     0.000019556913
       2        0.000400003843     0.000019944492    -0.000015858559
       3        0.000218439965    -0.000140933765    -0.000173966798
       4       -0.000201452979    -0.000225718077    -0.000061407686
       5        0.000208871804     0.000166866658     0.000154263697
       6       -0.000226211056     0.000201653039     0.000076838346
       7       -0.000013338938     0.000041193453    -0.000068067628
       8        0.000012391542    -0.000043094856     0.000066638359
       9       -0.000001640830    -0.000042056670     0.000068407030
      10        0.000002768743     0.000044204683    -0.000067468137
      11        0.000092905818     0.000006176158    -0.000003022133
      12       -0.000092956737    -0.000006674716     0.000003650941
      13        0.000065775179    -0.000098568539     0.000006812319
      14       -0.000059599203    -0.000040373876    -0.000094495922
      15        0.000051286147     0.000106589338    -0.000010678728
      16       -0.000057426549     0.000031928754     0.000098829912
      17        0.000006128440    -0.000036029837    -0.000021288943
      18       -0.000003032312    -0.000034690783    -0.000023635404
      19        0.000002785917     0.000036490851     0.000020791550
      20       -0.000005941258     0.000034342073     0.000024013477
      21       -0.000037869109    -0.000002560188     0.000001438762
      22        0.000037890336     0.000002542055    -0.000001343911

  **** Optimization is complete! (in 3 steps) ****
    Final optimized geometry and variables:
    Molecular point group: c1

    Geometry (in Angstrom), charge = 0, multiplicity = 1:

    C            0.740824984308     0.049533729393    -0.027544015824
    C           -0.740825914979    -0.049514690189     0.027549819086
    C            1.398029648090     0.288698334328    -1.241608710697
    C           -1.363587766932    -1.084832501193     0.737013364032
    C            1.511954951165    -0.094204304835     1.133383789942
    C           -1.546397694115     0.890353630625    -0.628783580910
    C            2.786159386396     0.382568530277    -1.293316354014
    C           -2.751784536782    -1.177203854100     0.789675166752
    C            2.900239926816    -0.002543703173     1.081819952316
    C           -2.934613935285     0.797164170493    -0.578185100760
    C            3.542182291610     0.236721759959    -0.131746438053
    C           -3.542181562503    -0.236737253466     0.131741998083
    H            0.817025088444     0.379832411439    -2.150121396646
    H           -0.754258416270    -1.830795211005     1.230497262722
    H            1.017012298707    -0.257246598172     2.081918327173
    H           -1.079780010755     1.708226024571    -1.162281155660
    H            3.277164406708     0.560934038531    -2.240619449794
    H           -3.215464424873    -1.987203193475     1.336653004440
    H            3.479295830588    -0.109415577906     1.989319495352
    H           -3.540993687328     1.535650808468    -1.085358170108
    H            4.620482900045     0.308775228769    -0.171855075051
    H           -4.620481339439    -0.308803750124     0.171848467876

*** Psi4 exiting successfully. Buy a developer a beer!
