                               Psi4 1.3.2 release

  ==> Input File <==

--------------------------------------------------------------------------
molecule {
0 1
 C   -0.405900   -0.631200    0.331100
 C    0.392700    0.516300   -0.295100
 C   -1.870300   -0.336400   -0.025800
 C    1.874200    0.331600   -0.005200
 H   -0.354400   -0.625400    1.420700
 H   -0.160400   -1.589700   -0.122500
 H    0.102100    1.487200    0.145100
 H    0.184400    0.562800   -1.364100
 H   -1.872700   -0.219000   -1.136400
 H   -2.087900    0.646300    0.469700
 H   -2.540800   -1.138200    0.303200
 H    2.367800   -0.351900   -0.697800
 H    1.980700    0.021600    1.065200
 H    2.390500    1.325800   -0.088000
}
set {
  geom_maxiter 400
  g_convergence GAU_LOOSE
  dynamic_level 1
}
memory 700MB
set_num_threads(8)
psi4_io.set_default_path("/home/daniele/PSI4_sctatch/Psi4-butane")
for _ in range(1):
  try:
    set opt_coordinates both
    optimize('mp2/6-31G*')
    break
  except OptimizationConvergenceError:
    break
  else:
    try:
      set opt_coordinates cartesian
      optimize('mp2/6-31G*')
      break
    except OptimizationConvergenceError:
      pass
clean()
--------------------------------------------------------------------------

    Molecular point group: c1
  Charge       = 0
  Multiplicity = 1
  Basis Set: 6-31G*
    Blend: 6-31G*
  Basis Set: (6-31G* AUX)
    Blend: CC-PVDZ-JKFIT
  @DF-RHF Final Energy:  -157.28139066831793
    Total Energy =                       -157.2813906683179255
  Basis Set: (6-31G* AUX)
    Blend: CC-PVDZ-RI
    Molecular point group: c1
  Basis Set: 6-31G*
    Blend: 6-31G*
  Basis Set: (6-31G* AUX)
    Blend: CC-PVDZ-JKFIT
  Basis Set: (6-31G* AUX)
    Blend: CC-PVDZ-JKFIT
	 Reference Energy          =    -157.2813906683179255 [Eh]
	 Singles Energy            =      -0.0000000000000000 [Eh]
	 Same-Spin Energy          =      -0.1249555596723463 [Eh]
	 Opposite-Spin Energy      =      -0.4243718514756548 [Eh]
	 Correlation Energy        =      -0.5493274111480011 [Eh]
	 Total Energy              =    -157.8307180794659246 [Eh]
	 SCS Total Energy          =    -157.8322887433128301 [Eh]
  @DF-RHF Final Energy:  -157.29504601012977
    Total Energy =                       -157.2950460101297665
  @DF-RHF Final Energy:  -157.29734008272723
    Total Energy =                       -157.2973400827272314
  @DF-RHF Final Energy:  -157.29743014492917
    Total Energy =                       -157.2974301449291659
  @DF-RHF Final Energy:  -157.29785538755013
    Total Energy =                       -157.2978553875501291
  @DF-RHF Final Energy:  -157.29755711634954
    Total Energy =                       -157.2975571163495374
  @DF-RHF Final Energy:  -157.29785538755019
    Total Energy =                       -157.2978553875501859
  @DF-RHF Final Energy:  -157.29788452283859
    Total Energy =                       -157.2978845228385865
  Charge       = 0
  Multiplicity = 1
  Basis Set: 6-31G*
    Blend: 6-31G*
  Basis Set: (6-31G* AUX)
    Blend: CC-PVDZ-JKFIT

    Orbital Energies [Eh]
    ---------------------

    Doubly Occupied:

       1A    -11.215782     2A    -11.215178     3A    -11.210284
       4A    -11.210274     5A     -1.070588     6A     -0.979822
       7A     -0.859520     8A     -0.786191     9A     -0.637936
      10A     -0.583787    11A     -0.574922    12A     -0.566734
      13A     -0.513772    14A     -0.493880    15A     -0.468895
      16A     -0.459990    17A     -0.456008

  @DF-RHF Final Energy:  -157.29789988483193

   => Energetics <=

    Nuclear Repulsion Energy =            130.8050317637478770
    One-Electron Energy =                -469.5987330138896141
    Two-Electron Energy =                 181.4958013653098021
    Total Energy =                       -157.2978998848319350

  Dipole Moment: [D]
     X:    -0.0001      Y:    -0.0001      Z:    -0.0001     Total:     0.0002

  Basis Set: (6-31G* AUX)
    Blend: CC-PVDZ-RI
    Molecular point group: c1
  Basis Set: 6-31G*
    Blend: 6-31G*
  Basis Set: (6-31G* AUX)
    Blend: CC-PVDZ-JKFIT
  Basis Set: (6-31G* AUX)
    Blend: CC-PVDZ-JKFIT
	 Reference Energy          =    -157.2978998848319350 [Eh]
	 Singles Energy            =      -0.0000000000000000 [Eh]
	 Same-Spin Energy          =      -0.1244443694582304 [Eh]
	 Opposite-Spin Energy      =      -0.4221869014581297 [Eh]
	 Correlation Energy        =      -0.5466312709163601 [Eh]
	 Total Energy              =    -157.8445311557482853 [Eh]

	 ================> DF-SCS-MP2 Energies <==================
	-----------------------------------------------------------
	 SCS Same-Spin Scale       =       0.3333333333333333 [-]
	 SCS Opposite-Spin Scale   =       1.2000000000000000 [-]
	 SCS Same-Spin Energy      =      -0.0414814564860768 [Eh]
	 SCS Opposite-Spin Energy  =      -0.5066242817497556 [Eh]
	 SCS Correlation Energy    =      -0.5481057382358324 [Eh]
	 SCS Total Energy          =    -157.8460056230677537 [Eh]
	-----------------------------------------------------------

  -Total Gradient:
     Atom            X                  Y                   Z
    ------   -----------------  -----------------  -----------------
       1       -0.000003516991     0.000005022701    -0.000012357760
       2        0.000020685330    -0.000051544344    -0.000022703192
       3       -0.000012760304    -0.000010800991     0.000037172139
       4       -0.000012808651     0.000014246047     0.000027413866
       5       -0.000007104415    -0.000015141102     0.000000134396
       6        0.000005652380     0.000015037091    -0.000006556934
       7        0.000008716338     0.000009242283     0.000001914253
       8       -0.000001067939    -0.000000044783    -0.000015759822
       9        0.000001154448    -0.000007175460     0.000016760013
      10       -0.000004729328    -0.000004863002    -0.000024125413
      11       -0.000007452555     0.000019038262    -0.000000115590
      12       -0.000021236390     0.000016032076    -0.000000754379
      13        0.000005319098    -0.000017039370     0.000003746715
      14        0.000029148979     0.000027990591    -0.000004768294

  **** Optimization is complete! (in 3 steps) ****
    Final optimized geometry and variables:
    Molecular point group: c1

    Geometry (in Angstrom), charge = 0, multiplicity = 1:

    C           -0.437568473138    -0.574869709743     0.243880799048
    C            0.437678502075     0.574511994890    -0.244679205663
    C           -1.919242870275    -0.352883508646    -0.038584538039
    C            1.919144323073     0.353215831012     0.039327122976
    H           -0.283736855076    -0.710065698261     1.321551206799
    H           -0.106485150772    -1.505675816440    -0.232850116858
    H            0.105973116515     1.505488589706     0.231343592889
    H            0.284682738545     0.709131888898    -1.322559839433
    H           -2.099258621176    -0.246681238619    -1.112496343316
    H           -2.276791544886     0.558004108310     0.450723719566
    H           -2.526276896487    -1.187816620551     0.322251744820
    H            2.278264863372    -0.555565086291    -0.452725264816
    H            2.097645958953     0.243375633095     1.113155282177
    H            2.525845679969     1.190106584152    -0.317729322657

*** Psi4 exiting successfully. Buy a developer a beer!
