                               Psi4 1.3.2 release

  ==> Input File <==

--------------------------------------------------------------------------
molecule {
0 1
C -0.437568473138 -0.574869709743 0.243880799048
C 0.437678502075 0.574511994890 -0.244679205663
C -1.919242870275 -0.352883508646 -0.038584538039
C 1.919144323073 0.353215831012 0.039327122976
H -0.283736855076 -0.710065698261 1.321551206799
H -0.106485150772 -1.505675816440 -0.232850116858
H 0.105973116515 1.505488589706 0.231343592889
H 0.284682738545 0.709131888898 -1.322559839433
H -2.099258621176 -0.246681238619 -1.112496343316
H -2.276791544886 0.558004108310 0.450723719566
H -2.526276896487 -1.187816620551 0.322251744820
H 2.278264863372 -0.555565086291 -0.452725264816
H 2.097645958953 0.243375633095 1.113155282177
H 2.525845679969 1.190106584152 -0.317729322657
}
memory 700MB
set_num_threads(8)
psi4_io.set_default_path("/home/daniele/PSI4_sctatch/Psi4-butane")
set freeze_core True
set PROPERTIES_ORIGIN ["COM"]
set cubeprop_tasks ['esp']
E, wfn = energy('mp2/6-311G**',properties=['dipole'],return_wfn=True)
cubeprop(wfn)
fchk(wfn, "butane-dma.fchk")
clean()
--------------------------------------------------------------------------

    Molecular point group: c1

    Geometry (in Angstrom), charge = 0, multiplicity = 1:

       Center              X                  Y                   Z               Mass
    ------------   -----------------  -----------------  -----------------  -----------------
         C           -0.437568473138    -0.574869709743     0.243880799048    12.000000000000
         C            0.437678502075     0.574511994890    -0.244679205663    12.000000000000
         C           -1.919242870275    -0.352883508646    -0.038584538039    12.000000000000
         C            1.919144323073     0.353215831012     0.039327122976    12.000000000000
         H           -0.283736855076    -0.710065698261     1.321551206799     1.007825032230
         H           -0.106485150772    -1.505675816440    -0.232850116858     1.007825032230
         H            0.105973116515     1.505488589706     0.231343592889     1.007825032230
         H            0.284682738545     0.709131888898    -1.322559839433     1.007825032230
         H           -2.099258621176    -0.246681238619    -1.112496343316     1.007825032230
         H           -2.276791544886     0.558004108310     0.450723719566     1.007825032230
         H           -2.526276896487    -1.187816620551     0.322251744820     1.007825032230
         H            2.278264863372    -0.555565086291    -0.452725264816     1.007825032230
         H            2.097645958953     0.243375633095     1.113155282177     1.007825032230
         H            2.525845679969     1.190106584152    -0.317729322657     1.007825032230

  Charge       = 0
  Multiplicity = 1
  Basis Set: 6-311G**
    Blend: 6-311G**
  Basis Set: (6-311G** AUX)
    Blend: CC-PVTZ-JKFIT

    Orbital Energies [Eh]
    ---------------------

    Doubly Occupied:

       1A    -11.215543     2A    -11.214926     3A    -11.209970
       4A    -11.209959     5A     -1.071232     6A     -0.980525
       7A     -0.860281     8A     -0.786938     9A     -0.638533
      10A     -0.584281    11A     -0.575457    12A     -0.567103
      13A     -0.514081    14A     -0.494201    15A     -0.469405
      16A     -0.460719    17A     -0.456742

  @DF-RHF Final Energy:  -157.33944757640816

   => Energetics <=

    Nuclear Repulsion Energy =            130.8050317637510034
    One-Electron Energy =                -469.6691658030388794
    Two-Electron Energy =                 181.5246864628797141
    Total Energy =                       -157.3394475764081619

  Dipole Moment: [D]
     X:    -0.0001      Y:    -0.0001      Z:    -0.0000     Total:     0.0001

  Basis Set: (6-311G** AUX)
    Blend: CC-PVTZ-RI
	 Reference Energy          =    -157.3394475764081619 [Eh]
	 Singles Energy            =      -0.0000000000000000 [Eh]
	 Same-Spin Energy          =      -0.1368308046266595 [Eh]
	 Opposite-Spin Energy      =      -0.4847417399802221 [Eh]
	 Correlation Energy        =      -0.6215725446068816 [Eh]
	 Total Energy              =    -157.9610201210150535 [Eh]

	 ================> DF-SCS-MP2 Energies <==================
	-----------------------------------------------------------
	 SCS Same-Spin Scale       =       0.3333333333333333 [-]
	 SCS Opposite-Spin Scale   =       1.2000000000000000 [-]
	 SCS Same-Spin Energy      =      -0.0456102682088865 [Eh]
	 SCS Opposite-Spin Energy  =      -0.5816900879762664 [Eh]
	 SCS Correlation Energy    =      -0.6273003561851529 [Eh]
	 SCS Total Energy          =    -157.9667479325933073 [Eh]
	-----------------------------------------------------------

  Basis Set: 6-311G**
    Blend: 6-311G**
*** Psi4 exiting successfully. Buy a developer a beer!
