                               Psi4 1.3.2 release

  ==> Input File <==

--------------------------------------------------------------------------
molecule {
0 1
C -0.437568473138 -0.574869709743 0.243880799048
C 0.437678502075 0.574511994890 -0.244679205663
C -1.919242870275 -0.352883508646 -0.038584538039
C 1.919144323073 0.353215831012 0.039327122976
H -0.283736855076 -0.710065698261 1.321551206799
H -0.106485150772 -1.505675816440 -0.232850116858
H 0.105973116515 1.505488589706 0.231343592889
H 0.284682738545 0.709131888898 -1.322559839433
H -2.099258621176 -0.246681238619 -1.112496343316
H -2.276791544886 0.558004108310 0.450723719566
H -2.526276896487 -1.187816620551 0.322251744820
H 2.278264863372 -0.555565086291 -0.452725264816
H 2.097645958953 0.243375633095 1.113155282177
H 2.525845679969 1.190106584152 -0.317729322657
}
memory 700MB
set_num_threads(8)
psi4_io.set_default_path("/home/daniele/PSI4_sctatch/Psi4-butane")
set maxiter 500
set freeze_core True
set PROPERTIES_ORIGIN ["COM"]
set cubeprop_tasks ['esp']
E, wfn = properties('mp2/aug-cc-pVTZ',properties=['dipole'],return_wfn=True)
cubeprop(wfn)
fchk(wfn, "butane-esp.fchk")
oeprop(wfn,"GRID_ESP","WIBERG_LOWDIN_INDICES","MULLIKEN_CHARGES")
clean()
--------------------------------------------------------------------------

    Molecular point group: c1
  Charge       = 0
  Multiplicity = 1
  Basis Set: AUG-CC-PVTZ
    Blend: AUG-CC-PVTZ
  Basis Set: (AUG-CC-PVTZ AUX)
    Blend: AUG-CC-PVTZ-JKFIT

    Orbital Energies [Eh]
    ---------------------

    Doubly Occupied:

       1A    -11.214825     2A    -11.214206     3A    -11.209224
       4A    -11.209213     5A     -1.070172     6A     -0.979590
       7A     -0.859350     8A     -0.786092     9A     -0.637718
      10A     -0.583585    11A     -0.574644    12A     -0.566352
      13A     -0.513540    14A     -0.493605    15A     -0.468851
      16A     -0.460598    17A     -0.456114

  @DF-RHF Final Energy:  -157.35610512691221

   => Energetics <=

    Nuclear Repulsion Energy =            130.8050317637510034
    One-Electron Energy =                -469.7269183770471841
    Two-Electron Energy =                 181.5657814863839690
    Total Energy =                       -157.3561051269122117
  Basis Set: (AUG-CC-PVTZ AUX)
    Blend: AUG-CC-PVTZ-RI
    Molecular point group: c1

    Geometry (in Angstrom), charge = 0, multiplicity = 1:

       Center              X                  Y                   Z               Mass
    ------------   -----------------  -----------------  -----------------  -----------------
         C           -0.437568473138    -0.574869709743     0.243880799048    12.000000000000
         C            0.437678502075     0.574511994890    -0.244679205663    12.000000000000
         C           -1.919242870275    -0.352883508646    -0.038584538039    12.000000000000
         C            1.919144323073     0.353215831012     0.039327122976    12.000000000000
         H           -0.283736855076    -0.710065698261     1.321551206799     1.007825032230
         H           -0.106485150772    -1.505675816440    -0.232850116858     1.007825032230
         H            0.105973116515     1.505488589706     0.231343592889     1.007825032230
         H            0.284682738545     0.709131888898    -1.322559839433     1.007825032230
         H           -2.099258621176    -0.246681238619    -1.112496343316     1.007825032230
         H           -2.276791544886     0.558004108310     0.450723719566     1.007825032230
         H           -2.526276896487    -1.187816620551     0.322251744820     1.007825032230
         H            2.278264863372    -0.555565086291    -0.452725264816     1.007825032230
         H            2.097645958953     0.243375633095     1.113155282177     1.007825032230
         H            2.525845679969     1.190106584152    -0.317729322657     1.007825032230

  Basis Set: AUG-CC-PVTZ
    Blend: AUG-CC-PVTZ
  Basis Set: (AUG-CC-PVTZ AUX)
    Blend: AUG-CC-PVTZ-JKFIT
	 Reference Energy          =    -157.3561051269122117 [Eh]
	 Singles Energy            =      -0.0000000000000000 [Eh]
	 Same-Spin Energy          =      -0.1547064977446326 [Eh]
	 Opposite-Spin Energy      =      -0.5741749817245695 [Eh]
	 Correlation Energy        =      -0.7288814794692021 [Eh]
	 Total Energy              =    -158.0849866063814204 [Eh]

	 ================> DF-SCS-MP2 Energies <==================
	-----------------------------------------------------------
	 SCS Same-Spin Scale       =       0.3333333333333333 [-]
	 SCS Opposite-Spin Scale   =       1.2000000000000000 [-]
	 SCS Same-Spin Energy      =      -0.0515688325815442 [Eh]
	 SCS Opposite-Spin Energy  =      -0.6890099780694834 [Eh]
	 SCS Correlation Energy    =      -0.7405788106510276 [Eh]
	 SCS Total Energy          =    -158.0966839375632276 [Eh]
	-----------------------------------------------------------

  Dipole Moment: [D]
     X:    -0.0001      Y:    -0.0001      Z:    -0.0001     Total:     0.0002

  Basis Set: AUG-CC-PVTZ
    Blend: AUG-CC-PVTZ

  Mulliken Charges: (a.u.)
   Center  Symbol    Alpha    Beta     Spin     Total
       1     C     3.21728  3.21728  0.00000 -0.43456
       2     C     3.21728  3.21728  0.00000 -0.43456
       3     C     3.50118  3.50118  0.00000 -1.00236
       4     C     3.50115  3.50115  0.00000 -1.00231
       5     H     0.35493  0.35493  0.00000  0.29014
       6     H     0.35486  0.35486  0.00000  0.29028
       7     H     0.35494  0.35494  0.00000  0.29011
       8     H     0.35486  0.35486  0.00000  0.29029
       9     H     0.35543  0.35543  0.00000  0.28915
      10     H     0.35536  0.35536  0.00000  0.28927
      11     H     0.36096  0.36096  0.00000  0.27809
      12     H     0.35543  0.35543  0.00000  0.28915
      13     H     0.35538  0.35538  0.00000  0.28925
      14     H     0.36097  0.36097  0.00000  0.27807

   Total alpha = 17.00000, Total beta = 17.00000, Total charge =  0.00000

*** Psi4 exiting successfully. Buy a developer a beer!
