                               Psi4 1.3.2 release

  ==> Input File <==

--------------------------------------------------------------------------
molecule {
0 1
O -2.282125446741 0.357665621530 -0.550406921071
C 0.063965793203 0.214157106825 -0.228796254732
C 1.226946805740 -0.413008529894 0.532553772829
C -1.284460544526 -0.291045427193 0.239116065563
C 2.580164876062 0.105031870455 0.057624561227
H 0.082904250920 1.303819029745 -0.115790185182
H 0.157664451981 0.004349409022 -1.300110437657
H 1.191603286350 -1.503378242821 0.418557651617
H 1.113116219025 -0.210495150884 1.604504245846
H -1.336458074411 -1.383637613184 0.121034480265
H -1.418759916238 -0.066360861645 1.307673160036
H 2.728926577385 -0.113539209583 -1.003599196816
H 3.401821839251 -0.353803300885 0.614304221202
H 2.649066087464 1.188767927961 0.187863655559
H -3.149302446710 0.040386428123 -0.249108873316
}
memory 700MB
set_num_threads(8)
psi4_io.set_default_path("/home/daniele/PSI4_sctatch/Psi4-1butanol_3D")
set maxiter 500
set freeze_core True
set PROPERTIES_ORIGIN ["COM"]
set cubeprop_tasks ['esp']
E, wfn = properties('mp2/aug-cc-pVTZ',properties=['dipole'],return_wfn=True)
cubeprop(wfn)
fchk(wfn, "1butanol_3D-esp.fchk")
oeprop(wfn,"GRID_ESP","WIBERG_LOWDIN_INDICES","MULLIKEN_CHARGES")
clean()
--------------------------------------------------------------------------

    Molecular point group: c1
  Charge       = 0
  Multiplicity = 1
  Basis Set: AUG-CC-PVTZ
    Blend: AUG-CC-PVTZ
  Basis Set: (AUG-CC-PVTZ AUX)
    Blend: AUG-CC-PVTZ-JKFIT

    Orbital Energies [Eh]
    ---------------------

    Doubly Occupied:

       1A    -20.556458     2A    -11.272408     3A    -11.220170
       4A    -11.213605     5A    -11.212035     6A     -1.352829
       7A     -1.071390     8A     -0.973924     9A     -0.851875
      10A     -0.793416    11A     -0.685072    12A     -0.659288
      13A     -0.601456    14A     -0.591836    15A     -0.561388
      16A     -0.520549    17A     -0.513234    18A     -0.474870
      19A     -0.469238    20A     -0.465122    21A     -0.441718

  @DF-RHF Final Energy:  -232.23994436085161

   => Energetics <=

    Nuclear Repulsion Energy =            185.1964099290224226
    One-Electron Energy =                -681.8689495581060100
    Two-Electron Energy =                 264.4325952682319780
    Total Energy =                       -232.2399443608516094
  Basis Set: (AUG-CC-PVTZ AUX)
    Blend: AUG-CC-PVTZ-RI
    Molecular point group: c1

    Geometry (in Angstrom), charge = 0, multiplicity = 1:

       Center              X                  Y                   Z               Mass
    ------------   -----------------  -----------------  -----------------  -----------------
         O           -2.282125446741     0.357665621530    -0.550406921071    15.994914619570
         C            0.063965793203     0.214157106825    -0.228796254732    12.000000000000
         C            1.226946805740    -0.413008529894     0.532553772829    12.000000000000
         C           -1.284460544526    -0.291045427193     0.239116065563    12.000000000000
         C            2.580164876062     0.105031870455     0.057624561227    12.000000000000
         H            0.082904250920     1.303819029745    -0.115790185182     1.007825032230
         H            0.157664451981     0.004349409022    -1.300110437657     1.007825032230
         H            1.191603286350    -1.503378242821     0.418557651617     1.007825032230
         H            1.113116219025    -0.210495150884     1.604504245846     1.007825032230
         H           -1.336458074411    -1.383637613184     0.121034480265     1.007825032230
         H           -1.418759916238    -0.066360861645     1.307673160036     1.007825032230
         H            2.728926577385    -0.113539209583    -1.003599196816     1.007825032230
         H            3.401821839251    -0.353803300885     0.614304221202     1.007825032230
         H            2.649066087464     1.188767927961     0.187863655559     1.007825032230
         H           -3.149302446710     0.040386428123    -0.249108873316     1.007825032230

  Basis Set: AUG-CC-PVTZ
    Blend: AUG-CC-PVTZ
  Basis Set: (AUG-CC-PVTZ AUX)
    Blend: AUG-CC-PVTZ-JKFIT
	 Reference Energy          =    -232.2399443608516094 [Eh]
	 Singles Energy            =      -0.0000000000000000 [Eh]
	 Same-Spin Energy          =      -0.2193891281084705 [Eh]
	 Opposite-Spin Energy      =      -0.7479880838771255 [Eh]
	 Correlation Energy        =      -0.9673772119855959 [Eh]
	 Total Energy              =    -233.2073215728372020 [Eh]

	 ================> DF-SCS-MP2 Energies <==================
	-----------------------------------------------------------
	 SCS Same-Spin Scale       =       0.3333333333333333 [-]
	 SCS Opposite-Spin Scale   =       1.2000000000000000 [-]
	 SCS Same-Spin Energy      =      -0.0731297093694901 [Eh]
	 SCS Opposite-Spin Energy  =      -0.8975857006525505 [Eh]
	 SCS Correlation Energy    =      -0.9707154100220406 [Eh]
	 SCS Total Energy          =    -233.2106597708736615 [Eh]
	-----------------------------------------------------------

  Dipole Moment: [D]
     X:    -0.1245      Y:    -1.0579      Z:     1.1786     Total:     1.5886

  Basis Set: AUG-CC-PVTZ
    Blend: AUG-CC-PVTZ

  Mulliken Charges: (a.u.)
   Center  Symbol    Alpha    Beta     Spin     Total
       1     O     4.26558  4.26558  0.00000 -0.53116
       2     C     3.18527  3.18527  0.00000 -0.37053
       3     C     3.23689  3.23689  0.00000 -0.47378
       4     C     3.18355  3.18355  0.00000 -0.36711
       5     C     3.50230  3.50230  0.00000 -1.00459
       6     H     0.34335  0.34335  0.00000  0.31330
       7     H     0.34415  0.34415  0.00000  0.31171
       8     H     0.35898  0.35898  0.00000  0.28205
       9     H     0.35843  0.35843  0.00000  0.28314
      10     H     0.36704  0.36704  0.00000  0.26592
      11     H     0.36715  0.36715  0.00000  0.26570
      12     H     0.35548  0.35548  0.00000  0.28904
      13     H     0.35678  0.35678  0.00000  0.28643
      14     H     0.35562  0.35562  0.00000  0.28876
      15     H     0.41944  0.41944  0.00000  0.16112

   Total alpha = 21.00000, Total beta = 21.00000, Total charge =  0.00000

*** Psi4 exiting successfully. Buy a developer a beer!
