                               Psi4 1.3.2 release

  ==> Input File <==

--------------------------------------------------------------------------
molecule {
0 1
 O   -2.584100    0.281700   -0.852300
 C   -0.286300    0.202400   -0.447400
 C    0.843000   -0.333500    0.401600
 C   -1.637300   -0.283000    0.010700
 C    2.132000    0.244300   -0.185000
 H   -0.292600    1.310600   -0.462800
 H   -0.088200   -0.131900   -1.486900
 H    0.913200   -1.436500    0.324900
 H    0.760400   -0.073500    1.455200
 H   -1.688700   -1.389200   -0.010300
 H   -1.858600    0.133400    1.017300
 H    1.980400    0.376300   -1.275200
 H    2.958800   -0.485900   -0.032500
 H    2.310600    1.197500    0.330200
 H   -3.462600    0.387200   -0.441400
}
set {
  geom_maxiter 400
  g_convergence GAU_LOOSE
  dynamic_level 1
}
memory 700MB
set_num_threads(8)
psi4_io.set_default_path("/home/daniele/PSI4_sctatch/Psi4-1butanol_3D")
for _ in range(1):
  try:
    set opt_coordinates both
    optimize('mp2/6-31G*')
    break
  except OptimizationConvergenceError:
    break
  else:
    try:
      set opt_coordinates cartesian
      optimize('mp2/6-31G*')
      break
    except OptimizationConvergenceError:
      pass
clean()
--------------------------------------------------------------------------

    Molecular point group: c1
  Charge       = 0
  Multiplicity = 1
  Basis Set: 6-31G*
    Blend: 6-31G*
  Basis Set: (6-31G* AUX)
    Blend: CC-PVDZ-JKFIT
  @DF-RHF Final Energy:  -232.12926839369209
    Total Energy =                       -232.1292683936920866
  Basis Set: (6-31G* AUX)
    Blend: CC-PVDZ-RI
    Molecular point group: c1
  Basis Set: 6-31G*
    Blend: 6-31G*
  Basis Set: (6-31G* AUX)
    Blend: CC-PVDZ-JKFIT
  Basis Set: (6-31G* AUX)
    Blend: CC-PVDZ-JKFIT
	 Reference Energy          =    -232.1292683936920866 [Eh]
	 Singles Energy            =      -0.0000000000000000 [Eh]
	 Same-Spin Energy          =      -0.1756352877033385 [Eh]
	 Opposite-Spin Energy      =      -0.5510841037985379 [Eh]
	 Correlation Energy        =      -0.7267193915018764 [Eh]
	 Total Energy              =    -232.8559877851939746 [Eh]
	 SCS Total Energy          =    -232.8491144141514440 [Eh]
  @DF-RHF Final Energy:  -232.13957965710975
    Total Energy =                       -232.1395796571097776
  @DF-RHF Final Energy:  -232.14141529547442
    Total Energy =                       -232.1414152954744168
  @DF-RHF Final Energy:  -232.14214537213837
    Total Energy =                       -232.1421453721383727
  @DF-RHF Final Energy:  -232.14248173780376
    Total Energy =                       -232.1424817378037915
  @DF-RHF Final Energy:  -232.14327797408760
    Total Energy =                       -232.1432779740875958
  Charge       = 0
  Multiplicity = 1
  Basis Set: 6-31G*
    Blend: 6-31G*
  Basis Set: (6-31G* AUX)
    Blend: CC-PVDZ-JKFIT

    Orbital Energies [Eh]
    ---------------------

    Doubly Occupied:

       1A    -20.556440     2A    -11.272021     3A    -11.220969
       4A    -11.213550     5A    -11.212909     6A     -1.346697
       7A     -1.071360     8A     -0.973230     9A     -0.851094
      10A     -0.792822    11A     -0.680478    12A     -0.657918
      13A     -0.600232    14A     -0.589770    15A     -0.559139
      16A     -0.519267    17A     -0.510123    18A     -0.474289
      19A     -0.468158    20A     -0.463559    21A     -0.436253

  @DF-RHF Final Energy:  -232.14333116823914

   => Energetics <=

    Nuclear Repulsion Energy =            185.1964099290231331
    One-Electron Energy =                -681.7389244610947117
    Two-Electron Energy =                 264.3991833638323783
    Total Energy =                       -232.1433311682391718

  Dipole Moment: [D]
     X:    -0.2372      Y:    -1.1701      Z:     1.2978     Total:     1.7634

  Basis Set: (6-31G* AUX)
    Blend: CC-PVDZ-RI
    Molecular point group: c1
  Basis Set: 6-31G*
    Blend: 6-31G*
  Basis Set: (6-31G* AUX)
    Blend: CC-PVDZ-JKFIT
  Basis Set: (6-31G* AUX)
    Blend: CC-PVDZ-JKFIT
	 Reference Energy          =    -232.1433311682391434 [Eh]
	 Singles Energy            =      -0.0000000000000000 [Eh]
	 Same-Spin Energy          =      -0.1752555423048375 [Eh]
	 Opposite-Spin Energy      =      -0.5503138142566342 [Eh]
	 Correlation Energy        =      -0.7255693565614717 [Eh]
	 Total Energy              =    -232.8689005248006083 [Eh]

	 ================> DF-SCS-MP2 Energies <==================
	-----------------------------------------------------------
	 SCS Same-Spin Scale       =       0.3333333333333333 [-]
	 SCS Opposite-Spin Scale   =       1.2000000000000000 [-]
	 SCS Same-Spin Energy      =      -0.0584185141016125 [Eh]
	 SCS Opposite-Spin Energy  =      -0.6603765771079609 [Eh]
	 SCS Correlation Energy    =      -0.7187950912095734 [Eh]
	 SCS Total Energy          =    -232.8621262594487291 [Eh]
	-----------------------------------------------------------

  -Total Gradient:
     Atom            X                  Y                   Z
    ------   -----------------  -----------------  -----------------
       1       -0.000284860892     0.000043350039    -0.000161837745
       2       -0.000025412240     0.000000685461     0.000019971624
       3        0.000019525520    -0.000011201452     0.000000236171
       4        0.000282754789    -0.000105570623     0.000198773589
       5        0.000022194196     0.000038981128    -0.000009141824
       6        0.000019644777    -0.000007767902     0.000010671210
       7       -0.000018326129    -0.000002376142     0.000003353817
       8       -0.000022124141    -0.000014882777    -0.000017058844
       9        0.000010973501    -0.000021648883    -0.000031994902
      10        0.000006707158     0.000012872379    -0.000022182260
      11       -0.000037479492     0.000024424015    -0.000014027690
      12       -0.000021084502     0.000020635134     0.000086507792
      13       -0.000016505293     0.000028952511    -0.000014068558
      14        0.000020786322    -0.000054314632    -0.000034912644
      15        0.000043206435     0.000047861744    -0.000014289736

  **** Optimization is complete! (in 7 steps) ****
    Final optimized geometry and variables:
    Molecular point group: c1

    Geometry (in Angstrom), charge = 0, multiplicity = 1:

    O           -2.282125446741     0.357665621530    -0.550406921071
    C            0.063965793203     0.214157106825    -0.228796254732
    C            1.226946805740    -0.413008529894     0.532553772829
    C           -1.284460544526    -0.291045427193     0.239116065563
    C            2.580164876062     0.105031870455     0.057624561227
    H            0.082904250920     1.303819029745    -0.115790185182
    H            0.157664451981     0.004349409022    -1.300110437657
    H            1.191603286350    -1.503378242821     0.418557651617
    H            1.113116219025    -0.210495150884     1.604504245846
    H           -1.336458074411    -1.383637613184     0.121034480265
    H           -1.418759916238    -0.066360861645     1.307673160036
    H            2.728926577385    -0.113539209583    -1.003599196816
    H            3.401821839251    -0.353803300885     0.614304221202
    H            2.649066087464     1.188767927961     0.187863655559
    H           -3.149302446710     0.040386428123    -0.249108873316

*** Psi4 exiting successfully. Buy a developer a beer!
