                               Psi4 1.3.2 release

  ==> Input File <==

--------------------------------------------------------------------------
molecule {
0 1
O -2.282125446741 0.357665621530 -0.550406921071
C 0.063965793203 0.214157106825 -0.228796254732
C 1.226946805740 -0.413008529894 0.532553772829
C -1.284460544526 -0.291045427193 0.239116065563
C 2.580164876062 0.105031870455 0.057624561227
H 0.082904250920 1.303819029745 -0.115790185182
H 0.157664451981 0.004349409022 -1.300110437657
H 1.191603286350 -1.503378242821 0.418557651617
H 1.113116219025 -0.210495150884 1.604504245846
H -1.336458074411 -1.383637613184 0.121034480265
H -1.418759916238 -0.066360861645 1.307673160036
H 2.728926577385 -0.113539209583 -1.003599196816
H 3.401821839251 -0.353803300885 0.614304221202
H 2.649066087464 1.188767927961 0.187863655559
H -3.149302446710 0.040386428123 -0.249108873316
}
memory 700MB
set_num_threads(8)
psi4_io.set_default_path("/home/daniele/PSI4_sctatch/Psi4-1butanol_3D")
set freeze_core True
set PROPERTIES_ORIGIN ["COM"]
set cubeprop_tasks ['esp']
E, wfn = energy('mp2/6-311G**',properties=['dipole'],return_wfn=True)
cubeprop(wfn)
fchk(wfn, "1butanol_3D-dma.fchk")
clean()
--------------------------------------------------------------------------

    Molecular point group: c1

    Geometry (in Angstrom), charge = 0, multiplicity = 1:

       Center              X                  Y                   Z               Mass
    ------------   -----------------  -----------------  -----------------  -----------------
         O           -2.282125446741     0.357665621530    -0.550406921071    15.994914619570
         C            0.063965793203     0.214157106825    -0.228796254732    12.000000000000
         C            1.226946805740    -0.413008529894     0.532553772829    12.000000000000
         C           -1.284460544526    -0.291045427193     0.239116065563    12.000000000000
         C            2.580164876062     0.105031870455     0.057624561227    12.000000000000
         H            0.082904250920     1.303819029745    -0.115790185182     1.007825032230
         H            0.157664451981     0.004349409022    -1.300110437657     1.007825032230
         H            1.191603286350    -1.503378242821     0.418557651617     1.007825032230
         H            1.113116219025    -0.210495150884     1.604504245846     1.007825032230
         H           -1.336458074411    -1.383637613184     0.121034480265     1.007825032230
         H           -1.418759916238    -0.066360861645     1.307673160036     1.007825032230
         H            2.728926577385    -0.113539209583    -1.003599196816     1.007825032230
         H            3.401821839251    -0.353803300885     0.614304221202     1.007825032230
         H            2.649066087464     1.188767927961     0.187863655559     1.007825032230
         H           -3.149302446710     0.040386428123    -0.249108873316     1.007825032230

  Charge       = 0
  Multiplicity = 1
  Basis Set: 6-311G**
    Blend: 6-311G**
  Basis Set: (6-311G** AUX)
    Blend: CC-PVTZ-JKFIT

    Orbital Energies [Eh]
    ---------------------

    Doubly Occupied:

       1A    -20.544545     2A    -11.271092     3A    -11.220264
       4A    -11.213159     5A    -11.212295     6A     -1.347967
       7A     -1.071486     8A     -0.973576     9A     -0.851501
      10A     -0.793134    11A     -0.681613    12A     -0.658370
      13A     -0.600696    14A     -0.590478    15A     -0.559792
      16A     -0.519636    17A     -0.511121    18A     -0.474496
      19A     -0.468543    20A     -0.464061    21A     -0.438481

  @DF-RHF Final Energy:  -232.21160391023960

   => Energetics <=

    Nuclear Repulsion Energy =            185.1964099290224226
    One-Electron Energy =                -681.8834206352227056
    Two-Electron Energy =                 264.4754067959606800
    Total Energy =                       -232.2116039102396030

  Dipole Moment: [D]
     X:    -0.2501      Y:    -1.1553      Z:     1.2799     Total:     1.7423

  Basis Set: (6-311G** AUX)
    Blend: CC-PVTZ-RI
	 Reference Energy          =    -232.2116039102396030 [Eh]
	 Singles Energy            =      -0.0000000000000000 [Eh]
	 Same-Spin Energy          =      -0.1910700247060224 [Eh]
	 Opposite-Spin Energy      =      -0.6235737897104583 [Eh]
	 Correlation Energy        =      -0.8146438144164807 [Eh]
	 Total Energy              =    -233.0262477246560877 [Eh]

	 ================> DF-SCS-MP2 Energies <==================
	-----------------------------------------------------------
	 SCS Same-Spin Scale       =       0.3333333333333333 [-]
	 SCS Opposite-Spin Scale   =       1.2000000000000000 [-]
	 SCS Same-Spin Energy      =      -0.0636900082353408 [Eh]
	 SCS Opposite-Spin Energy  =      -0.7482885476525499 [Eh]
	 SCS Correlation Energy    =      -0.8119785558878907 [Eh]
	 SCS Total Energy          =    -233.0235824661274933 [Eh]
	-----------------------------------------------------------

  Basis Set: 6-311G**
    Blend: 6-311G**
*** Psi4 exiting successfully. Buy a developer a beer!
