                               Psi4 1.3.2 release

  ==> Input File <==

--------------------------------------------------------------------------
molecule {
0 1
C -1.302096077875 -0.673333861299 0.636819004685
C -2.343461294995 -0.049480794049 -0.296270086997
C 0.095342047898 -0.229679734140 0.299640220140
C -3.764895229551 -0.491420750511 0.034837757444
C 0.613964900251 0.957472654540 0.828933947478
C 0.880357821093 -0.955921821987 -0.602779015560
C 1.886381120159 1.403820115093 0.474723809701
C 2.153723343444 -0.514777823393 -0.960955828331
C 2.659744432096 0.668801944489 -0.423961133845
H -1.368834228296 -1.766640623980 0.573400130633
H -1.537828196629 -0.403340001311 1.674171182649
H -2.263160568176 1.042353627848 -0.235228860334
H -2.096657242606 -0.320487752239 -1.330278859840
H -4.034229061611 -0.201318895315 1.055808169670
H -4.491995019544 -0.038128098046 -0.646406343211
H -3.863677767165 -1.578655369183 -0.042766758076
H 0.016631818081 1.532181379931 1.535390622921
H 0.491647702764 -1.883135477834 -1.021041487998
H 2.275805461132 2.324658601186 0.901943519557
H 2.752240868721 -1.095902766796 -1.658320853307
H 3.653226761049 1.013415648009 -0.699374156307
}
memory 700MB
set_num_threads(8)
psi4_io.set_default_path("/home/daniele/PSI4_sctatch/Psi4-propbenzene")
set freeze_core True
set PROPERTIES_ORIGIN ["COM"]
set cubeprop_tasks ['esp']
E, wfn = energy('mp2/6-311G**',properties=['dipole'],return_wfn=True)
cubeprop(wfn)
fchk(wfn, "propbenzene-dma.fchk")
clean()
--------------------------------------------------------------------------

    Molecular point group: c1

    Geometry (in Angstrom), charge = 0, multiplicity = 1:

       Center              X                  Y                   Z               Mass
    ------------   -----------------  -----------------  -----------------  -----------------
         C           -1.302096077875    -0.673333861299     0.636819004685    12.000000000000
         C           -2.343461294995    -0.049480794049    -0.296270086997    12.000000000000
         C            0.095342047898    -0.229679734140     0.299640220140    12.000000000000
         C           -3.764895229551    -0.491420750511     0.034837757444    12.000000000000
         C            0.613964900251     0.957472654540     0.828933947478    12.000000000000
         C            0.880357821093    -0.955921821987    -0.602779015560    12.000000000000
         C            1.886381120159     1.403820115093     0.474723809701    12.000000000000
         C            2.153723343444    -0.514777823393    -0.960955828331    12.000000000000
         C            2.659744432096     0.668801944489    -0.423961133845    12.000000000000
         H           -1.368834228296    -1.766640623980     0.573400130633     1.007825032230
         H           -1.537828196629    -0.403340001311     1.674171182649     1.007825032230
         H           -2.263160568176     1.042353627848    -0.235228860334     1.007825032230
         H           -2.096657242606    -0.320487752239    -1.330278859840     1.007825032230
         H           -4.034229061611    -0.201318895315     1.055808169670     1.007825032230
         H           -4.491995019544    -0.038128098046    -0.646406343211     1.007825032230
         H           -3.863677767165    -1.578655369183    -0.042766758076     1.007825032230
         H            0.016631818081     1.532181379931     1.535390622921     1.007825032230
         H            0.491647702764    -1.883135477834    -1.021041487998     1.007825032230
         H            2.275805461132     2.324658601186     0.901943519557     1.007825032230
         H            2.752240868721    -1.095902766796    -1.658320853307     1.007825032230
         H            3.653226761049     1.013415648009    -0.699374156307     1.007825032230

  Charge       = 0
  Multiplicity = 1
  Basis Set: 6-311G**
    Blend: 6-311G**
  Basis Set: (6-311G** AUX)
    Blend: CC-PVTZ-JKFIT

    Orbital Energies [Eh]
    ---------------------

    Doubly Occupied:

       1A    -11.236377     2A    -11.232252     3A    -11.232078
       4A    -11.228322     5A    -11.227798     6A    -11.227686
       7A    -11.225010     8A    -11.221018     9A    -11.213957
      10A     -1.151452    11A     -1.074944    12A     -1.011189
      13A     -1.008982    14A     -0.921815    15A     -0.822797
      16A     -0.820423    17A     -0.783157    18A     -0.690468
      19A     -0.646498    20A     -0.632840    21A     -0.605587
      22A     -0.588341    23A     -0.580573    24A     -0.565866
      25A     -0.529118    26A     -0.524911    27A     -0.495798
      28A     -0.487375    29A     -0.474708    30A     -0.468110
      31A     -0.465256    32A     -0.331960    33A     -0.321053

  @DF-RHF Final Energy:  -347.88622765066765

   => Energetics <=

    Nuclear Repulsion Energy =            411.6843910603399195
    One-Electron Energy =               -1285.0457976597535890
    Two-Electron Energy =                 525.4751789487460201
    Total Energy =                       -347.8862276506675926

  Dipole Moment: [D]
     X:    -0.3336      Y:    -0.0219      Z:    -0.0230     Total:     0.3352

  Basis Set: (6-311G** AUX)
    Blend: CC-PVTZ-RI
	 Reference Energy          =    -347.8862276506676494 [Eh]
	 Singles Energy            =      -0.0000000000000000 [Eh]
	 Same-Spin Energy          =      -0.3226984048540985 [Eh]
	 Opposite-Spin Energy      =      -0.9603526407201970 [Eh]
	 Correlation Energy        =      -1.2830510455742954 [Eh]
	 Total Energy              =    -349.1692786962419177 [Eh]

	 ================> DF-SCS-MP2 Energies <==================
	-----------------------------------------------------------
	 SCS Same-Spin Scale       =       0.3333333333333333 [-]
	 SCS Opposite-Spin Scale   =       1.2000000000000000 [-]
	 SCS Same-Spin Energy      =      -0.1075661349513661 [Eh]
	 SCS Opposite-Spin Energy  =      -1.1524231688642363 [Eh]
	 SCS Correlation Energy    =      -1.2599893038156025 [Eh]
	 SCS Total Energy          =    -349.1462169544832363 [Eh]
	-----------------------------------------------------------

  Basis Set: 6-311G**
    Blend: 6-311G**
*** Psi4 exiting successfully. Buy a developer a beer!
