                               Psi4 1.3.2 release

  ==> Input File <==

--------------------------------------------------------------------------
molecule {
0 1
C -1.302096077875 -0.673333861299 0.636819004685
C -2.343461294995 -0.049480794049 -0.296270086997
C 0.095342047898 -0.229679734140 0.299640220140
C -3.764895229551 -0.491420750511 0.034837757444
C 0.613964900251 0.957472654540 0.828933947478
C 0.880357821093 -0.955921821987 -0.602779015560
C 1.886381120159 1.403820115093 0.474723809701
C 2.153723343444 -0.514777823393 -0.960955828331
C 2.659744432096 0.668801944489 -0.423961133845
H -1.368834228296 -1.766640623980 0.573400130633
H -1.537828196629 -0.403340001311 1.674171182649
H -2.263160568176 1.042353627848 -0.235228860334
H -2.096657242606 -0.320487752239 -1.330278859840
H -4.034229061611 -0.201318895315 1.055808169670
H -4.491995019544 -0.038128098046 -0.646406343211
H -3.863677767165 -1.578655369183 -0.042766758076
H 0.016631818081 1.532181379931 1.535390622921
H 0.491647702764 -1.883135477834 -1.021041487998
H 2.275805461132 2.324658601186 0.901943519557
H 2.752240868721 -1.095902766796 -1.658320853307
H 3.653226761049 1.013415648009 -0.699374156307
}
memory 700MB
set_num_threads(8)
psi4_io.set_default_path("/home/daniele/PSI4_sctatch/Psi4-propbenzene")
set maxiter 500
set freeze_core True
set PROPERTIES_ORIGIN ["COM"]
set cubeprop_tasks ['esp']
E, wfn = properties('mp2/aug-cc-pVTZ',properties=['dipole'],return_wfn=True)
cubeprop(wfn)
fchk(wfn, "propbenzene-esp.fchk")
oeprop(wfn,"GRID_ESP","WIBERG_LOWDIN_INDICES","MULLIKEN_CHARGES")
clean()
--------------------------------------------------------------------------

    Molecular point group: c1
  Charge       = 0
  Multiplicity = 1
  Basis Set: AUG-CC-PVTZ
    Blend: AUG-CC-PVTZ
  Basis Set: (AUG-CC-PVTZ AUX)
    Blend: AUG-CC-PVTZ-JKFIT

    Orbital Energies [Eh]
    ---------------------

    Doubly Occupied:

       1A    -11.237471     2A    -11.233624     3A    -11.233456
       4A    -11.229484     5A    -11.228972     6A    -11.228859
       7A    -11.225188     8A    -11.221329     9A    -11.213904
      10A     -1.152214    11A     -1.075088    12A     -1.011475
      13A     -1.009714    14A     -0.921924    15A     -0.823559
      16A     -0.820787    17A     -0.783622    18A     -0.690963
      19A     -0.646858    20A     -0.633431    21A     -0.606112
      22A     -0.588527    23A     -0.581050    24A     -0.566257
      25A     -0.529293    26A     -0.525520    27A     -0.496892
      28A     -0.488155    29A     -0.475529    30A     -0.468807
      31A     -0.465837    32A     -0.333496    33A     -0.322551

  @DF-RHF Final Energy:  -347.92559108363980

   => Energetics <=

    Nuclear Repulsion Energy =            411.6843910603399195
    One-Electron Energy =               -1285.0800676171031682
    Two-Electron Energy =                 525.4700854731233903
    Total Energy =                       -347.9255910836398016
  Basis Set: (AUG-CC-PVTZ AUX)
    Blend: AUG-CC-PVTZ-RI
    Molecular point group: c1

    Geometry (in Angstrom), charge = 0, multiplicity = 1:

       Center              X                  Y                   Z               Mass
    ------------   -----------------  -----------------  -----------------  -----------------
         C           -1.302096077875    -0.673333861299     0.636819004685    12.000000000000
         C           -2.343461294995    -0.049480794049    -0.296270086997    12.000000000000
         C            0.095342047898    -0.229679734140     0.299640220140    12.000000000000
         C           -3.764895229551    -0.491420750511     0.034837757444    12.000000000000
         C            0.613964900251     0.957472654540     0.828933947478    12.000000000000
         C            0.880357821093    -0.955921821987    -0.602779015560    12.000000000000
         C            1.886381120159     1.403820115093     0.474723809701    12.000000000000
         C            2.153723343444    -0.514777823393    -0.960955828331    12.000000000000
         C            2.659744432096     0.668801944489    -0.423961133845    12.000000000000
         H           -1.368834228296    -1.766640623980     0.573400130633     1.007825032230
         H           -1.537828196629    -0.403340001311     1.674171182649     1.007825032230
         H           -2.263160568176     1.042353627848    -0.235228860334     1.007825032230
         H           -2.096657242606    -0.320487752239    -1.330278859840     1.007825032230
         H           -4.034229061611    -0.201318895315     1.055808169670     1.007825032230
         H           -4.491995019544    -0.038128098046    -0.646406343211     1.007825032230
         H           -3.863677767165    -1.578655369183    -0.042766758076     1.007825032230
         H            0.016631818081     1.532181379931     1.535390622921     1.007825032230
         H            0.491647702764    -1.883135477834    -1.021041487998     1.007825032230
         H            2.275805461132     2.324658601186     0.901943519557     1.007825032230
         H            2.752240868721    -1.095902766796    -1.658320853307     1.007825032230
         H            3.653226761049     1.013415648009    -0.699374156307     1.007825032230

  Basis Set: AUG-CC-PVTZ
    Blend: AUG-CC-PVTZ
  Basis Set: (AUG-CC-PVTZ AUX)
    Blend: AUG-CC-PVTZ-JKFIT
	 Reference Energy          =    -347.9255910836398016 [Eh]
	 Singles Energy            =      -0.0000000000000000 [Eh]
	 Same-Spin Energy          =      -0.3619809912403710 [Eh]
	 Opposite-Spin Energy      =      -1.1381715454125425 [Eh]
	 Correlation Energy        =      -1.5001525366529136 [Eh]
	 Total Energy              =    -349.4257436202927352 [Eh]

	 ================> DF-SCS-MP2 Energies <==================
	-----------------------------------------------------------
	 SCS Same-Spin Scale       =       0.3333333333333333 [-]
	 SCS Opposite-Spin Scale   =       1.2000000000000000 [-]
	 SCS Same-Spin Energy      =      -0.1206603304134570 [Eh]
	 SCS Opposite-Spin Energy  =      -1.3658058544950509 [Eh]
	 SCS Correlation Energy    =      -1.4864661849085079 [Eh]
	 SCS Total Energy          =    -349.4120572685483239 [Eh]
	-----------------------------------------------------------

  Dipole Moment: [D]
     X:    -0.4175      Y:    -0.0310      Z:    -0.0238     Total:     0.4193

  Basis Set: AUG-CC-PVTZ
    Blend: AUG-CC-PVTZ

  Mulliken Charges: (a.u.)
   Center  Symbol    Alpha    Beta     Spin     Total
       1     C     3.16988  3.16988  0.00000 -0.33975
       2     C     3.23109  3.23109  0.00000 -0.46217
       3     C     2.17182  2.17182  0.00000  1.65637
       4     C     3.52363  3.52363  0.00000 -1.04727
       5     C     3.46951  3.46951  0.00000 -0.93903
       6     C     3.46010  3.46010  0.00000 -0.92020
       7     C     3.34371  3.34371  0.00000 -0.68743
       8     C     3.33374  3.33374  0.00000 -0.66747
       9     C     3.06752  3.06752  0.00000 -0.13504
      10     H     0.38600  0.38600  0.00000  0.22800
      11     H     0.38412  0.38412  0.00000  0.23175
      12     H     0.35409  0.35409  0.00000  0.29182
      13     H     0.35515  0.35515  0.00000  0.28971
      14     H     0.35521  0.35521  0.00000  0.28958
      15     H     0.36429  0.36429  0.00000  0.27141
      16     H     0.35415  0.35415  0.00000  0.29171
      17     H     0.45516  0.45516  0.00000  0.08967
      18     H     0.47328  0.47328  0.00000  0.05343
      19     H     0.21759  0.21759  0.00000  0.56481
      20     H     0.21355  0.21355  0.00000  0.57291
      21     H     0.31640  0.31640  0.00000  0.36720

   Total alpha = 33.00000, Total beta = 33.00000, Total charge =  0.00000

*** Psi4 exiting successfully. Buy a developer a beer!
