                               Psi4 1.3.2 release

  ==> Input File <==

--------------------------------------------------------------------------
molecule {
0 1
 C   -0.886900   -0.512700    0.583300
 C   -1.894500    0.074400   -0.372900
 C    0.497100   -0.083800    0.282600
 C   -3.261400   -0.438700    0.041300
 C    1.080300    1.045100    0.822200
 C    1.266900   -0.836800   -0.581400
 C    2.383600    1.405800    0.508700
 C    2.575000   -0.474600   -0.895900
 C    3.152100    0.653800   -0.354000
 H   -0.925400   -1.624400    0.456500
 H   -1.146000   -0.316900    1.632300
 H   -1.856700    1.167400   -0.434700
 H   -1.711900   -0.320800   -1.393500
 H   -3.444200   -0.258800    1.119900
 H   -4.066500    0.015800   -0.573000
 H   -3.218100   -1.554100   -0.093900
 H    0.474200    1.630400    1.497100
 H    0.816100   -1.725600   -1.009800
 H    2.827100    2.297900    0.942700
 H    3.167000   -1.081500   -1.579900
 H    4.172100    0.938400   -0.597700
}
set {
  geom_maxiter 400
  g_convergence GAU_LOOSE
  dynamic_level 1
}
memory 700MB
set_num_threads(8)
psi4_io.set_default_path("/home/daniele/PSI4_sctatch/Psi4-propbenzene")
for _ in range(1):
  try:
    set opt_coordinates both
    optimize('mp2/6-31G*')
    break
  except OptimizationConvergenceError:
    break
  else:
    try:
      set opt_coordinates cartesian
      optimize('mp2/6-31G*')
      break
    except OptimizationConvergenceError:
      pass
clean()
--------------------------------------------------------------------------

    Molecular point group: c1
  Charge       = 0
  Multiplicity = 1
  Basis Set: 6-31G*
    Blend: 6-31G*
  Basis Set: (6-31G* AUX)
    Blend: CC-PVDZ-JKFIT
  @DF-RHF Final Energy:  -347.79774355584379
    Total Energy =                       -347.7977435558437946
  Basis Set: (6-31G* AUX)
    Blend: CC-PVDZ-RI
    Molecular point group: c1
  Basis Set: 6-31G*
    Blend: 6-31G*
  Basis Set: (6-31G* AUX)
    Blend: CC-PVDZ-JKFIT
  Basis Set: (6-31G* AUX)
    Blend: CC-PVDZ-JKFIT
	 Reference Energy          =    -347.7977435558437946 [Eh]
	 Singles Energy            =      -0.0000000000000000 [Eh]
	 Same-Spin Energy          =      -0.3068815246006880 [Eh]
	 Opposite-Spin Energy      =      -0.8904325951297876 [Eh]
	 Correlation Energy        =      -1.1973141197304755 [Eh]
	 Total Energy              =    -348.9950576755742873 [Eh]
	 SCS Total Energy          =    -348.9685565115331087 [Eh]
  @DF-RHF Final Energy:  -347.80633507164890
    Total Energy =                       -347.8063350716488458
  @DF-RHF Final Energy:  -347.80772584921635
    Total Energy =                       -347.8077258492163537
  Charge       = 0
  Multiplicity = 1
  Basis Set: 6-31G*
    Blend: 6-31G*
  Basis Set: (6-31G* AUX)
    Blend: CC-PVDZ-JKFIT

    Orbital Energies [Eh]
    ---------------------

    Doubly Occupied:

       1A    -11.234538     2A    -11.231298     3A    -11.231109
       4A    -11.227774     5A    -11.227047     6A    -11.226938
       7A    -11.223844     8A    -11.220416     9A    -11.213670
      10A     -1.147076    11A     -1.072437    12A     -1.008189
      13A     -1.004792    14A     -0.919199    15A     -0.818941
      16A     -0.817807    17A     -0.779983    18A     -0.686509
      19A     -0.643382    20A     -0.630235    21A     -0.602181
      22A     -0.585677    23A     -0.576709    24A     -0.563678
      25A     -0.527327    26A     -0.522051    27A     -0.493078
      28A     -0.484255    29A     -0.472045    30A     -0.466163
      31A     -0.462025    32A     -0.327373    33A     -0.316659

  @DF-RHF Final Energy:  -347.80775458642972

   => Energetics <=

    Nuclear Repulsion Energy =            411.6843910603362815
    One-Electron Energy =               -1285.0554846980735419
    Two-Electron Energy =                 525.5633390513074801
    Total Energy =                       -347.8077545864297235

  Dipole Moment: [D]
     X:    -0.2474      Y:    -0.0127      Z:    -0.0212     Total:     0.2486

  Basis Set: (6-31G* AUX)
    Blend: CC-PVDZ-RI
    Molecular point group: c1
  Basis Set: 6-31G*
    Blend: 6-31G*
  Basis Set: (6-31G* AUX)
    Blend: CC-PVDZ-JKFIT
  Basis Set: (6-31G* AUX)
    Blend: CC-PVDZ-JKFIT
	 Reference Energy          =    -347.8077545864297235 [Eh]
	 Singles Energy            =      -0.0000000000000000 [Eh]
	 Same-Spin Energy          =      -0.3061558852193995 [Eh]
	 Opposite-Spin Energy      =      -0.8906188269981383 [Eh]
	 Correlation Energy        =      -1.1967747122175378 [Eh]
	 Total Energy              =    -349.0045292986472418 [Eh]

	 ================> DF-SCS-MP2 Energies <==================
	-----------------------------------------------------------
	 SCS Same-Spin Scale       =       0.3333333333333333 [-]
	 SCS Opposite-Spin Scale   =       1.2000000000000000 [-]
	 SCS Same-Spin Energy      =      -0.1020519617397998 [Eh]
	 SCS Opposite-Spin Energy  =      -1.0687425923977660 [Eh]
	 SCS Correlation Energy    =      -1.1707945541375659 [Eh]
	 SCS Total Energy          =    -348.9785491405672815 [Eh]
	-----------------------------------------------------------

  -Total Gradient:
     Atom            X                  Y                   Z
    ------   -----------------  -----------------  -----------------
       1       -0.000167260953     0.000071373717    -0.000160039763
       2        0.000037895543     0.000299219998     0.000676931197
       3        0.000034476203     0.000034276806    -0.000076349367
       4        0.000193167668    -0.000704801654    -0.000020050967
       5       -0.000044928538    -0.000284085701    -0.000034624778
       6        0.000091679273     0.000001398108     0.000194198964
       7        0.000033058948     0.000016741223    -0.000183023130
       8        0.000002355674     0.000160460288    -0.000011996841
       9       -0.000036967625    -0.000110804336     0.000069451018
      10        0.000046487384     0.000091635467    -0.000074865108
      11       -0.000030582250    -0.000005134451     0.000073043309
      12        0.000187600506     0.000175965340     0.000047589633
      13        0.000102921405    -0.000233809726    -0.000451968859
      14        0.000013388422     0.000367437718     0.000561628246
      15       -0.000450063752     0.000319495215    -0.000488567871
      16        0.000005374786    -0.000290624649    -0.000110775254
      17       -0.000059947801     0.000016055211    -0.000023270745
      18       -0.000052837420     0.000083753017     0.000019103950
      19        0.000017537275    -0.000076411283    -0.000013143478
      20        0.000042175940     0.000037269102     0.000028218626
      21        0.000034469311     0.000030590590    -0.000021488781

  **** Optimization is complete! (in 4 steps) ****
    Final optimized geometry and variables:
    Molecular point group: c1

    Geometry (in Angstrom), charge = 0, multiplicity = 1:

    C           -1.302096077875    -0.673333861299     0.636819004685
    C           -2.343461294995    -0.049480794049    -0.296270086997
    C            0.095342047898    -0.229679734140     0.299640220140
    C           -3.764895229551    -0.491420750511     0.034837757444
    C            0.613964900251     0.957472654540     0.828933947478
    C            0.880357821093    -0.955921821987    -0.602779015560
    C            1.886381120159     1.403820115093     0.474723809701
    C            2.153723343444    -0.514777823393    -0.960955828331
    C            2.659744432096     0.668801944489    -0.423961133845
    H           -1.368834228296    -1.766640623980     0.573400130633
    H           -1.537828196629    -0.403340001311     1.674171182649
    H           -2.263160568176     1.042353627848    -0.235228860334
    H           -2.096657242606    -0.320487752239    -1.330278859840
    H           -4.034229061611    -0.201318895315     1.055808169670
    H           -4.491995019544    -0.038128098046    -0.646406343211
    H           -3.863677767165    -1.578655369183    -0.042766758076
    H            0.016631818081     1.532181379931     1.535390622921
    H            0.491647702764    -1.883135477834    -1.021041487998
    H            2.275805461132     2.324658601186     0.901943519557
    H            2.752240868721    -1.095902766796    -1.658320853307
    H            3.653226761049     1.013415648009    -0.699374156307

*** Psi4 exiting successfully. Buy a developer a beer!
