                               Psi4 1.3.2 release

  ==> Input File <==

--------------------------------------------------------------------------
molecule {
0 1
N 2.298257799814 0.281520176280 0.376198253703
C 0.927514052508 0.117666313672 0.115125502370
C 0.391794580472 -1.158791493254 -0.098909958106
C 0.058377201436 1.215207105055 0.161476710100
C -0.977416942380 -1.326889478859 -0.288957153137
C -1.309941173436 1.040522987744 -0.028620044744
C -1.838759007819 -0.230706187612 -0.251174054646
H 1.055857616710 -2.021011299147 -0.124619199484
H 0.461586196368 2.210533732193 0.339562340970
H -1.372369969171 -2.325368193778 -0.460389360907
H -1.966711239250 1.906293609548 0.005156390365
H -2.906351878181 -0.364393238421 -0.399653344783
H 2.645596171363 1.200819366816 0.123250120489
H 2.874694734929 -0.434481774905 -0.054064757367
}
memory 700MB
set_num_threads(8)
psi4_io.set_default_path("/home/daniele/PSI4_sctatch/Psi4-aniline")
set freeze_core True
set PROPERTIES_ORIGIN ["COM"]
set cubeprop_tasks ['esp']
E, wfn = energy('mp2/6-311G**',properties=['dipole'],return_wfn=True)
cubeprop(wfn)
fchk(wfn, "aniline-dma.fchk")
clean()
--------------------------------------------------------------------------

    Molecular point group: c1

    Geometry (in Angstrom), charge = 0, multiplicity = 1:

       Center              X                  Y                   Z               Mass
    ------------   -----------------  -----------------  -----------------  -----------------
         N            2.298257799814     0.281520176280     0.376198253703    14.003074004430
         C            0.927514052508     0.117666313672     0.115125502370    12.000000000000
         C            0.391794580472    -1.158791493254    -0.098909958106    12.000000000000
         C            0.058377201436     1.215207105055     0.161476710100    12.000000000000
         C           -0.977416942380    -1.326889478859    -0.288957153137    12.000000000000
         C           -1.309941173436     1.040522987744    -0.028620044744    12.000000000000
         C           -1.838759007819    -0.230706187612    -0.251174054646    12.000000000000
         H            1.055857616710    -2.021011299147    -0.124619199484     1.007825032230
         H            0.461586196368     2.210533732193     0.339562340970     1.007825032230
         H           -1.372369969171    -2.325368193778    -0.460389360907     1.007825032230
         H           -1.966711239250     1.906293609548     0.005156390365     1.007825032230
         H           -2.906351878181    -0.364393238421    -0.399653344783     1.007825032230
         H            2.645596171363     1.200819366816     0.123250120489     1.007825032230
         H            2.874694734929    -0.434481774905    -0.054064757367     1.007825032230

  Charge       = 0
  Multiplicity = 1
  Basis Set: 6-311G**
    Blend: 6-311G**
  Basis Set: (6-311G** AUX)
    Blend: CC-PVTZ-JKFIT

    Orbital Energies [Eh]
    ---------------------

    Doubly Occupied:

       1A    -15.558892     2A    -11.275992     3A    -11.234325
       4A    -11.234290     5A    -11.222848     6A    -11.222827
       7A    -11.218779     8A     -1.219672     9A     -1.124232
      10A     -1.010035    11A     -0.983574    12A     -0.829287
      13A     -0.809155    14A     -0.701138    15A     -0.678421
      16A     -0.651728    17A     -0.595760    18A     -0.589637
      19A     -0.579063    20A     -0.531303    21A     -0.504050
      22A     -0.487165    23A     -0.446863    24A     -0.334570
      25A     -0.294526

  @DF-RHF Final Energy:  -285.79858181650820

   => Energetics <=

    Nuclear Repulsion Energy =            271.2305593489520561
    One-Electron Energy =                -923.3820130548895122
    Two-Electron Energy =                 366.3528718894292524
    Total Energy =                       -285.7985818165082037

  Dipole Moment: [D]
     X:     1.0090      Y:     0.2599      Z:    -1.0889     Total:     1.5071

  Basis Set: (6-311G** AUX)
    Blend: CC-PVTZ-RI
	 Reference Energy          =    -285.7985818165082037 [Eh]
	 Singles Energy            =      -0.0000000000000000 [Eh]
	 Same-Spin Energy          =      -0.2637300847708649 [Eh]
	 Opposite-Spin Energy      =      -0.7420900324984349 [Eh]
	 Correlation Energy        =      -1.0058201172692998 [Eh]
	 Total Energy              =    -286.8044019337775126 [Eh]

	 ================> DF-SCS-MP2 Energies <==================
	-----------------------------------------------------------
	 SCS Same-Spin Scale       =       0.3333333333333333 [-]
	 SCS Opposite-Spin Scale   =       1.2000000000000000 [-]
	 SCS Same-Spin Energy      =      -0.0879100282569550 [Eh]
	 SCS Opposite-Spin Energy  =      -0.8905080389981218 [Eh]
	 SCS Correlation Energy    =      -0.9784180672550767 [Eh]
	 SCS Total Energy          =    -286.7769998837632670 [Eh]
	-----------------------------------------------------------

  Basis Set: 6-311G**
    Blend: 6-311G**
*** Psi4 exiting successfully. Buy a developer a beer!
