                               Psi4 1.3.2 release

  ==> Input File <==

--------------------------------------------------------------------------
molecule {
0 1
N 2.298257799814 0.281520176280 0.376198253703
C 0.927514052508 0.117666313672 0.115125502370
C 0.391794580472 -1.158791493254 -0.098909958106
C 0.058377201436 1.215207105055 0.161476710100
C -0.977416942380 -1.326889478859 -0.288957153137
C -1.309941173436 1.040522987744 -0.028620044744
C -1.838759007819 -0.230706187612 -0.251174054646
H 1.055857616710 -2.021011299147 -0.124619199484
H 0.461586196368 2.210533732193 0.339562340970
H -1.372369969171 -2.325368193778 -0.460389360907
H -1.966711239250 1.906293609548 0.005156390365
H -2.906351878181 -0.364393238421 -0.399653344783
H 2.645596171363 1.200819366816 0.123250120489
H 2.874694734929 -0.434481774905 -0.054064757367
}
memory 700MB
set_num_threads(8)
psi4_io.set_default_path("/home/daniele/PSI4_sctatch/Psi4-aniline")
set maxiter 500
set freeze_core True
set PROPERTIES_ORIGIN ["COM"]
set cubeprop_tasks ['esp']
E, wfn = properties('mp2/aug-cc-pVTZ',properties=['dipole'],return_wfn=True)
cubeprop(wfn)
fchk(wfn, "aniline-esp.fchk")
oeprop(wfn,"GRID_ESP","WIBERG_LOWDIN_INDICES","MULLIKEN_CHARGES")
clean()
--------------------------------------------------------------------------

    Molecular point group: c1
  Charge       = 0
  Multiplicity = 1
  Basis Set: AUG-CC-PVTZ
    Blend: AUG-CC-PVTZ
  Basis Set: (AUG-CC-PVTZ AUX)
    Blend: AUG-CC-PVTZ-JKFIT

    Orbital Energies [Eh]
    ---------------------

    Doubly Occupied:

       1A    -15.567071     2A    -11.278065     3A    -11.236527
       4A    -11.236490     5A    -11.225413     6A    -11.225393
       7A    -11.221161     8A     -1.222784     9A     -1.126271
      10A     -1.011719    11A     -0.985464    12A     -0.831186
      13A     -0.811211    14A     -0.703010    15A     -0.681137
      16A     -0.653833    17A     -0.597490    18A     -0.591778
      19A     -0.580604    20A     -0.534573    21A     -0.506086
      22A     -0.488945    23A     -0.450041    24A     -0.336866
      25A     -0.297725

  @DF-RHF Final Energy:  -285.83456294574660

   => Energetics <=

    Nuclear Repulsion Energy =            271.2305593489520561
    One-Electron Energy =                -923.3285553966244379
    Two-Electron Energy =                 366.2634331019257843
    Total Energy =                       -285.8345629457465975
  Basis Set: (AUG-CC-PVTZ AUX)
    Blend: AUG-CC-PVTZ-RI
    Molecular point group: c1

    Geometry (in Angstrom), charge = 0, multiplicity = 1:

       Center              X                  Y                   Z               Mass
    ------------   -----------------  -----------------  -----------------  -----------------
         N            2.298257799814     0.281520176280     0.376198253703    14.003074004430
         C            0.927514052508     0.117666313672     0.115125502370    12.000000000000
         C            0.391794580472    -1.158791493254    -0.098909958106    12.000000000000
         C            0.058377201436     1.215207105055     0.161476710100    12.000000000000
         C           -0.977416942380    -1.326889478859    -0.288957153137    12.000000000000
         C           -1.309941173436     1.040522987744    -0.028620044744    12.000000000000
         C           -1.838759007819    -0.230706187612    -0.251174054646    12.000000000000
         H            1.055857616710    -2.021011299147    -0.124619199484     1.007825032230
         H            0.461586196368     2.210533732193     0.339562340970     1.007825032230
         H           -1.372369969171    -2.325368193778    -0.460389360907     1.007825032230
         H           -1.966711239250     1.906293609548     0.005156390365     1.007825032230
         H           -2.906351878181    -0.364393238421    -0.399653344783     1.007825032230
         H            2.645596171363     1.200819366816     0.123250120489     1.007825032230
         H            2.874694734929    -0.434481774905    -0.054064757367     1.007825032230

  Basis Set: AUG-CC-PVTZ
    Blend: AUG-CC-PVTZ
  Basis Set: (AUG-CC-PVTZ AUX)
    Blend: AUG-CC-PVTZ-JKFIT
	 Reference Energy          =    -285.8345629457465975 [Eh]
	 Singles Energy            =      -0.0000000000000000 [Eh]
	 Same-Spin Energy          =      -0.2969306829860699 [Eh]
	 Opposite-Spin Energy      =      -0.8839046508487888 [Eh]
	 Correlation Energy        =      -1.1808353338348587 [Eh]
	 Total Energy              =    -287.0153982795814613 [Eh]

	 ================> DF-SCS-MP2 Energies <==================
	-----------------------------------------------------------
	 SCS Same-Spin Scale       =       0.3333333333333333 [-]
	 SCS Opposite-Spin Scale   =       1.2000000000000000 [-]
	 SCS Same-Spin Energy      =      -0.0989768943286900 [Eh]
	 SCS Opposite-Spin Energy  =      -1.0606855810185465 [Eh]
	 SCS Correlation Energy    =      -1.1596624753472364 [Eh]
	 SCS Total Energy          =    -286.9942254210938586 [Eh]
	-----------------------------------------------------------

  Dipole Moment: [D]
     X:     1.0785      Y:     0.2519      Z:    -0.9276     Total:     1.4447

  Basis Set: AUG-CC-PVTZ
    Blend: AUG-CC-PVTZ

  Mulliken Charges: (a.u.)
   Center  Symbol    Alpha    Beta     Spin     Total
       1     N     3.87803  3.87803  0.00000 -0.75605
       2     C     2.34327  2.34327  0.00000  1.31347
       3     C     3.43293  3.43293  0.00000 -0.86585
       4     C     3.43347  3.43347  0.00000 -0.86694
       5     C     3.19510  3.19510  0.00000 -0.39020
       6     C     3.19543  3.19543  0.00000 -0.39087
       7     C     3.23676  3.23676  0.00000 -0.47352
       8     H     0.24143  0.24143  0.00000  0.51713
       9     H     0.24115  0.24115  0.00000  0.51771
      10     H     0.32084  0.32084  0.00000  0.35832
      11     H     0.32084  0.32084  0.00000  0.35832
      12     H     0.24689  0.24689  0.00000  0.50622
      13     H     0.45696  0.45696  0.00000  0.08609
      14     H     0.45691  0.45691  0.00000  0.08619

   Total alpha = 25.00000, Total beta = 25.00000, Total charge = -0.00000

*** Psi4 exiting successfully. Buy a developer a beer!
