                               Psi4 1.3.2 release

  ==> Input File <==

--------------------------------------------------------------------------
molecule {
0 1
 N    2.308200    0.303200    0.073100
 C    0.889600    0.138600    0.030400
 C    0.330600   -1.093700   -0.240700
 C    0.018000    1.184500    0.254000
 C   -1.032300   -1.299100   -0.292000
 C   -1.345100    0.977200    0.202300
 C   -1.904300   -0.254300   -0.068600
 H    1.016100   -1.921800   -0.417700
 H    0.453200    2.153400    0.467200
 H   -1.418400   -2.294000   -0.510600
 H   -2.024900    1.803500    0.379000
 H   -2.988400   -0.392100   -0.103900
 H    2.846300    0.885100   -0.588400
 H    2.851400   -0.190500    0.815900
}
set {
  geom_maxiter 400
  g_convergence GAU_LOOSE
  dynamic_level 1
}
memory 700MB
set_num_threads(8)
psi4_io.set_default_path("/home/daniele/PSI4_sctatch/Psi4-aniline")
for _ in range(1):
  try:
    set opt_coordinates both
    optimize('mp2/6-31G*')
    break
  except OptimizationConvergenceError:
    break
  else:
    try:
      set opt_coordinates cartesian
      optimize('mp2/6-31G*')
      break
    except OptimizationConvergenceError:
      pass
clean()
--------------------------------------------------------------------------

    Molecular point group: c1
  Charge       = 0
  Multiplicity = 1
  Basis Set: 6-31G*
    Blend: 6-31G*
  Basis Set: (6-31G* AUX)
    Blend: CC-PVDZ-JKFIT
  @DF-RHF Final Energy:  -285.71125861429169
    Total Energy =                       -285.7112586142916939
  Basis Set: (6-31G* AUX)
    Blend: CC-PVDZ-RI
    Molecular point group: c1
  Basis Set: 6-31G*
    Blend: 6-31G*
  Basis Set: (6-31G* AUX)
    Blend: CC-PVDZ-JKFIT
  Basis Set: (6-31G* AUX)
    Blend: CC-PVDZ-JKFIT
	 Reference Energy          =    -285.7112586142916939 [Eh]
	 Singles Energy            =      -0.0000000000000000 [Eh]
	 Same-Spin Energy          =      -0.2522955456025942 [Eh]
	 Opposite-Spin Energy      =      -0.7001016281534722 [Eh]
	 Correlation Energy        =      -0.9523971737560664 [Eh]
	 Total Energy              =    -286.6636557880477767 [Eh]
	 SCS Total Energy          =    -286.6354790832767208 [Eh]
  @DF-RHF Final Energy:  -285.71794063576209
    Total Energy =                       -285.7179406357620906
  @DF-RHF Final Energy:  -285.72051164125111
    Total Energy =                       -285.7205116412511074
  @DF-RHF Final Energy:  -285.72115378607060
    Total Energy =                       -285.7211537860706017
  @DF-RHF Final Energy:  -285.71899594441811
    Total Energy =                       -285.7189959444181113
  @DF-RHF Final Energy:  -285.72115378587324
    Total Energy =                       -285.7211537858732413
  @DF-RHF Final Energy:  -285.72403567103504
    Total Energy =                       -285.7240356710350397
  @DF-RHF Final Energy:  -285.72403567102873
    Total Energy =                       -285.7240356710287301
  @DF-RHF Final Energy:  -285.72435190221972
    Total Energy =                       -285.7243519022197233
  @DF-RHF Final Energy:  -285.72473043958769
    Total Energy =                       -285.7247304395876881
  @DF-RHF Final Energy:  -285.72503218854848
    Total Energy =                       -285.7250321885484823
  @DF-RHF Final Energy:  -285.72529223203810
    Total Energy =                       -285.7252922320381003
  @DF-RHF Final Energy:  -285.72539746083038
    Total Energy =                       -285.7253974608303793
  @DF-RHF Final Energy:  -285.72565262050637
    Total Energy =                       -285.7256526205063665
  @DF-RHF Final Energy:  -285.72593505912914
    Total Energy =                       -285.7259350591291422
  @DF-RHF Final Energy:  -285.72603713796320
    Total Energy =                       -285.7260371379632033
  @DF-RHF Final Energy:  -285.72605185496963
    Total Energy =                       -285.7260518549696258
  @DF-RHF Final Energy:  -285.72600024163330
    Total Energy =                       -285.7260002416333009
  @DF-RHF Final Energy:  -285.72586584956429
    Total Energy =                       -285.7258658495642862
  @DF-RHF Final Energy:  -285.72557149587652
    Total Energy =                       -285.7255714958765225
  @DF-RHF Final Energy:  -285.72578102819148
    Total Energy =                       -285.7257810281914772
  @DF-RHF Final Energy:  -285.72586584980314
    Total Energy =                       -285.7258658498031423
  @DF-RHF Final Energy:  -285.72788860845310
    Total Energy =                       -285.7278886084530996
  @DF-RHF Final Energy:  -285.72758443761131
    Total Energy =                       -285.7275844376113128
  @DF-RHF Final Energy:  -285.72870845441207
    Total Energy =                       -285.7287084544120717
  @DF-RHF Final Energy:  -285.72833559428437
    Total Energy =                       -285.7283355942843741
  @DF-RHF Final Energy:  -285.72865022131543
    Total Energy =                       -285.7286502213154336
  @DF-RHF Final Energy:  -285.72876968726717
    Total Energy =                       -285.7287696872671745
  @DF-RHF Final Energy:  -285.72867578269592
    Total Energy =                       -285.7286757826959160
  @DF-RHF Final Energy:  -285.72873242589276
    Total Energy =                       -285.7287324258927583
  @DF-RHF Final Energy:  -285.72866521619017
    Total Energy =                       -285.7286652161901657
  @DF-RHF Final Energy:  -285.72870700743215
    Total Energy =                       -285.7287070074321491
  @DF-RHF Final Energy:  -285.72862674812455
    Total Energy =                       -285.7286267481245545
  @DF-RHF Final Energy:  -285.72868890819217
    Total Energy =                       -285.7286889081921686
  @DF-RHF Final Energy:  -285.72883248688936
    Total Energy =                       -285.7288324868893596
  @DF-RHF Final Energy:  -285.72876744164779
    Total Energy =                       -285.7287674416477898
  @DF-RHF Final Energy:  -285.72878840462965
    Total Energy =                       -285.7287884046296540
  Charge       = 0
  Multiplicity = 1
  Basis Set: 6-31G*
    Blend: 6-31G*
  Basis Set: (6-31G* AUX)
    Blend: CC-PVDZ-JKFIT

    Orbital Energies [Eh]
    ---------------------

    Doubly Occupied:

       1A    -15.565631     2A    -11.274118     3A    -11.233450
       4A    -11.233412     5A    -11.222423     6A    -11.222406
       7A    -11.218540     8A     -1.216936     9A     -1.120091
      10A     -1.006014    11A     -0.979817    12A     -0.825522
      13A     -0.805473    14A     -0.697261    15A     -0.675748
      16A     -0.649090    17A     -0.592105    18A     -0.585633
      19A     -0.575392    20A     -0.527343    21A     -0.500368
      22A     -0.483705    23A     -0.442483    24A     -0.330034
      25A     -0.290014

  @DF-RHF Final Energy:  -285.72878806637624

   => Energetics <=

    Nuclear Repulsion Energy =            271.2305593489359694
    One-Electron Energy =                -923.3726737260594746
    Two-Electron Energy =                 366.4133263107473226
    Total Energy =                       -285.7287880663762394

  Dipole Moment: [D]
     X:     0.9184      Y:     0.2644      Z:    -1.2473     Total:     1.5713

  Basis Set: (6-31G* AUX)
    Blend: CC-PVDZ-RI
    Molecular point group: c1
  Basis Set: 6-31G*
    Blend: 6-31G*
  Basis Set: (6-31G* AUX)
    Blend: CC-PVDZ-JKFIT
  Basis Set: (6-31G* AUX)
    Blend: CC-PVDZ-JKFIT
	 Reference Energy          =    -285.7287880663762394 [Eh]
	 Singles Energy            =      -0.0000000000000000 [Eh]
	 Same-Spin Energy          =      -0.2523596506324775 [Eh]
	 Opposite-Spin Energy      =      -0.7013799524672280 [Eh]
	 Correlation Energy        =      -0.9537396030997054 [Eh]
	 Total Energy              =    -286.6825276694759168 [Eh]

	 ================> DF-SCS-MP2 Energies <==================
	-----------------------------------------------------------
	 SCS Same-Spin Scale       =       0.3333333333333333 [-]
	 SCS Opposite-Spin Scale   =       1.2000000000000000 [-]
	 SCS Same-Spin Energy      =      -0.0841198835441591 [Eh]
	 SCS Opposite-Spin Energy  =      -0.8416559429606735 [Eh]
	 SCS Correlation Energy    =      -0.9257758265048326 [Eh]
	 SCS Total Energy          =    -286.6545638928810718 [Eh]
	-----------------------------------------------------------

  -Total Gradient:
     Atom            X                  Y                   Z
    ------   -----------------  -----------------  -----------------
       1        0.000067700962     0.000131262651     0.000014927401
       2        0.000073950232     0.000035038382     0.000002682883
       3       -0.000032630385    -0.000007312971     0.000012947299
       4       -0.000064063894     0.000014759186    -0.000029742190
       5       -0.000019161698     0.000107218761    -0.000024958389
       6        0.000013053354     0.000013857206     0.000014140318
       7       -0.000046299341    -0.000051134356    -0.000018174346
       8        0.000006253930    -0.000028043006     0.000010479214
       9       -0.000006347093    -0.000001240241     0.000001286979
      10       -0.000006672131    -0.000031830187    -0.000011334760
      11        0.000045115360    -0.000040218827     0.000007403430
      12        0.000080517867     0.000001215075     0.000024772390
      13       -0.000083295661    -0.000067807270     0.000018545859
      14       -0.000028121502    -0.000075764404    -0.000022976088

  **** Optimization is complete! (in 14 steps) ****
    Final optimized geometry and variables:
    Molecular point group: c1

    Geometry (in Angstrom), charge = 0, multiplicity = 1:

    N            2.298257799814     0.281520176280     0.376198253703
    C            0.927514052508     0.117666313672     0.115125502370
    C            0.391794580472    -1.158791493254    -0.098909958106
    C            0.058377201436     1.215207105055     0.161476710100
    C           -0.977416942380    -1.326889478859    -0.288957153137
    C           -1.309941173436     1.040522987744    -0.028620044744
    C           -1.838759007819    -0.230706187612    -0.251174054646
    H            1.055857616710    -2.021011299147    -0.124619199484
    H            0.461586196368     2.210533732193     0.339562340970
    H           -1.372369969171    -2.325368193778    -0.460389360907
    H           -1.966711239250     1.906293609548     0.005156390365
    H           -2.906351878181    -0.364393238421    -0.399653344783
    H            2.645596171363     1.200819366816     0.123250120489
    H            2.874694734929    -0.434481774905    -0.054064757367

*** Psi4 exiting successfully. Buy a developer a beer!
