                               Psi4 1.3.2 release

  ==> Input File <==

--------------------------------------------------------------------------
molecule {
0 1
H -1.853399133481 -2.021944065594 0.010287561311
C -1.251879818347 -1.116576440305 0.009532189160
C -1.871112285134 0.134779811264 0.032915796238
H -2.954446267882 0.210285975325 0.051958156871
C -1.087166468108 1.286659578587 0.031637215830
H -1.555713897809 2.267349252083 0.049677841095
C 0.304348570917 1.194151531038 0.007231402073
H 0.913254282565 2.097195329370 0.006327260005
C 0.913777319763 -0.061512279412 -0.016025535292
C 0.135592299911 -1.220803009747 -0.014924483549
H 0.633760379768 -2.185585220695 -0.033301490654
O 2.276791516025 -0.226853169214 -0.040706059958
H 2.693357312673 0.652822999878 -0.038620909978
}
memory 700MB
set_num_threads(8)
psi4_io.set_default_path("/home/daniele/PSI4_sctatch/Psi4-phenol")
set maxiter 500
set freeze_core True
set PROPERTIES_ORIGIN ["COM"]
set cubeprop_tasks ['esp']
E, wfn = properties('mp2/aug-cc-pVTZ',properties=['dipole'],return_wfn=True)
cubeprop(wfn)
fchk(wfn, "phenol-esp.fchk")
oeprop(wfn,"GRID_ESP","WIBERG_LOWDIN_INDICES","MULLIKEN_CHARGES")
clean()
--------------------------------------------------------------------------

    Molecular point group: c1
  Charge       = 0
  Multiplicity = 1
  Basis Set: AUG-CC-PVTZ
    Blend: AUG-CC-PVTZ
  Basis Set: (AUG-CC-PVTZ AUX)
    Blend: AUG-CC-PVTZ-JKFIT

    Orbital Energies [Eh]
    ---------------------

    Doubly Occupied:

       1A    -20.593608     2A    -11.305588     3A    -11.244818
       4A    -11.242738     5A    -11.236913     6A    -11.230433
       7A    -11.229535     8A     -1.402940     9A     -1.148142
      10A     -1.021081    11A     -1.005438    12A     -0.846827
      13A     -0.822743    14A     -0.731580    15A     -0.685219
      16A     -0.652710    17A     -0.609982    18A     -0.592169
      19A     -0.590399    20A     -0.570043    21A     -0.517347
      22A     -0.495400    23A     -0.484614    24A     -0.344016
      25A     -0.317174

  @DF-RHF Final Energy:  -305.67061918722811

   => Energetics <=

    Nuclear Repulsion Energy =            270.8976029819948508
    One-Electron Energy =                -951.2935309187962503
    Two-Electron Energy =                 374.7253087495732871
    Total Energy =                       -305.6706191872281124
  Basis Set: (AUG-CC-PVTZ AUX)
    Blend: AUG-CC-PVTZ-RI
    Molecular point group: c1

    Geometry (in Angstrom), charge = 0, multiplicity = 1:

       Center              X                  Y                   Z               Mass
    ------------   -----------------  -----------------  -----------------  -----------------
         H           -1.853399133481    -2.021944065594     0.010287561311     1.007825032230
         C           -1.251879818347    -1.116576440305     0.009532189160    12.000000000000
         C           -1.871112285134     0.134779811264     0.032915796238    12.000000000000
         H           -2.954446267882     0.210285975325     0.051958156871     1.007825032230
         C           -1.087166468108     1.286659578587     0.031637215830    12.000000000000
         H           -1.555713897809     2.267349252083     0.049677841095     1.007825032230
         C            0.304348570917     1.194151531038     0.007231402073    12.000000000000
         H            0.913254282565     2.097195329370     0.006327260005     1.007825032230
         C            0.913777319763    -0.061512279412    -0.016025535292    12.000000000000
         C            0.135592299911    -1.220803009747    -0.014924483549    12.000000000000
         H            0.633760379768    -2.185585220695    -0.033301490654     1.007825032230
         O            2.276791516025    -0.226853169214    -0.040706059958    15.994914619570
         H            2.693357312673     0.652822999878    -0.038620909978     1.007825032230

  Basis Set: AUG-CC-PVTZ
    Blend: AUG-CC-PVTZ
  Basis Set: (AUG-CC-PVTZ AUX)
    Blend: AUG-CC-PVTZ-JKFIT
	 Reference Energy          =    -305.6706191872281124 [Eh]
	 Singles Energy            =      -0.0000000000000000 [Eh]
	 Same-Spin Energy          =      -0.3067613136130422 [Eh]
	 Opposite-Spin Energy      =      -0.8987845043879320 [Eh]
	 Correlation Energy        =      -1.2055458180009742 [Eh]
	 Total Energy              =    -306.8761650052290975 [Eh]

	 ================> DF-SCS-MP2 Energies <==================
	-----------------------------------------------------------
	 SCS Same-Spin Scale       =       0.3333333333333333 [-]
	 SCS Opposite-Spin Scale   =       1.2000000000000000 [-]
	 SCS Same-Spin Energy      =      -0.1022537712043474 [Eh]
	 SCS Opposite-Spin Energy  =      -1.0785414052655184 [Eh]
	 SCS Correlation Energy    =      -1.1807951764698659 [Eh]
	 SCS Total Energy          =    -306.8514143636979838 [Eh]
	-----------------------------------------------------------

  Dipole Moment: [D]
     X:    -0.0008      Y:     1.2834      Z:     0.0133     Total:     1.2835

  Basis Set: AUG-CC-PVTZ
    Blend: AUG-CC-PVTZ

  Mulliken Charges: (a.u.)
   Center  Symbol    Alpha    Beta     Spin     Total
       1     H     0.31893  0.31893  0.00000  0.36214
       2     C     3.14916  3.14916  0.00000 -0.29832
       3     C     3.24709  3.24709  0.00000 -0.49417
       4     H     0.23663  0.23663  0.00000  0.52673
       5     C     3.18017  3.18017  0.00000 -0.36034
       6     H     0.33448  0.33448  0.00000  0.33104
       7     C     3.33258  3.33258  0.00000 -0.66516
       8     H     0.19126  0.19126  0.00000  0.61749
       9     C     2.61065  2.61065  0.00000  0.77871
      10     C     3.45303  3.45303  0.00000 -0.90606
      11     H     0.17244  0.17244  0.00000  0.65511
      12     O     4.34693  4.34693  0.00000 -0.69385
      13     H     0.42665  0.42665  0.00000  0.14669

   Total alpha = 25.00000, Total beta = 25.00000, Total charge =  0.00000

*** Psi4 exiting successfully. Buy a developer a beer!
