                               Psi4 1.3.2 release

  ==> Input File <==

--------------------------------------------------------------------------
molecule {
0 1
H -1.853399133481 -2.021944065594 0.010287561311
C -1.251879818347 -1.116576440305 0.009532189160
C -1.871112285134 0.134779811264 0.032915796238
H -2.954446267882 0.210285975325 0.051958156871
C -1.087166468108 1.286659578587 0.031637215830
H -1.555713897809 2.267349252083 0.049677841095
C 0.304348570917 1.194151531038 0.007231402073
H 0.913254282565 2.097195329370 0.006327260005
C 0.913777319763 -0.061512279412 -0.016025535292
C 0.135592299911 -1.220803009747 -0.014924483549
H 0.633760379768 -2.185585220695 -0.033301490654
O 2.276791516025 -0.226853169214 -0.040706059958
H 2.693357312673 0.652822999878 -0.038620909978
}
memory 700MB
set_num_threads(8)
psi4_io.set_default_path("/home/daniele/PSI4_sctatch/Psi4-phenol")
set freeze_core True
set PROPERTIES_ORIGIN ["COM"]
set cubeprop_tasks ['esp']
E, wfn = energy('mp2/6-311G**',properties=['dipole'],return_wfn=True)
cubeprop(wfn)
fchk(wfn, "phenol-dma.fchk")
clean()
--------------------------------------------------------------------------

    Molecular point group: c1

    Geometry (in Angstrom), charge = 0, multiplicity = 1:

       Center              X                  Y                   Z               Mass
    ------------   -----------------  -----------------  -----------------  -----------------
         H           -1.853399133481    -2.021944065594     0.010287561311     1.007825032230
         C           -1.251879818347    -1.116576440305     0.009532189160    12.000000000000
         C           -1.871112285134     0.134779811264     0.032915796238    12.000000000000
         H           -2.954446267882     0.210285975325     0.051958156871     1.007825032230
         C           -1.087166468108     1.286659578587     0.031637215830    12.000000000000
         H           -1.555713897809     2.267349252083     0.049677841095     1.007825032230
         C            0.304348570917     1.194151531038     0.007231402073    12.000000000000
         H            0.913254282565     2.097195329370     0.006327260005     1.007825032230
         C            0.913777319763    -0.061512279412    -0.016025535292    12.000000000000
         C            0.135592299911    -1.220803009747    -0.014924483549    12.000000000000
         H            0.633760379768    -2.185585220695    -0.033301490654     1.007825032230
         O            2.276791516025    -0.226853169214    -0.040706059958    15.994914619570
         H            2.693357312673     0.652822999878    -0.038620909978     1.007825032230

  Charge       = 0
  Multiplicity = 1
  Basis Set: 6-311G**
    Blend: 6-311G**
  Basis Set: (6-311G** AUX)
    Blend: CC-PVTZ-JKFIT

    Orbital Energies [Eh]
    ---------------------

    Doubly Occupied:

       1A    -20.583678     2A    -11.304322     3A    -11.243377
       4A    -11.241091     5A    -11.235284     6A    -11.228503
       7A    -11.228047     8A     -1.399227     9A     -1.147125
      10A     -1.020094    11A     -1.004365    12A     -0.845359
      13A     -0.821282    14A     -0.729775    15A     -0.683626
      16A     -0.650616    17A     -0.608928    18A     -0.591380
      19A     -0.586232    20A     -0.566568    21A     -0.515964
      22A     -0.493946    23A     -0.482001    24A     -0.342426
      25A     -0.314773

  @DF-RHF Final Energy:  -305.63183708942984

   => Energetics <=

    Nuclear Repulsion Energy =            270.8976029819948508
    One-Electron Energy =                -951.3229028201767505
    Two-Electron Energy =                 374.7934627487520629
    Total Energy =                       -305.6318370894298369

  Dipole Moment: [D]
     X:    -0.2075      Y:     1.4524      Z:     0.0185     Total:     1.4673

  Basis Set: (6-311G** AUX)
    Blend: CC-PVTZ-RI
	 Reference Energy          =    -305.6318370894298369 [Eh]
	 Singles Energy            =      -0.0000000000000000 [Eh]
	 Same-Spin Energy          =      -0.2710120831428422 [Eh]
	 Opposite-Spin Energy      =      -0.7509539412215744 [Eh]
	 Correlation Energy        =      -1.0219660243644166 [Eh]
	 Total Energy              =    -306.6538031137942539 [Eh]

	 ================> DF-SCS-MP2 Energies <==================
	-----------------------------------------------------------
	 SCS Same-Spin Scale       =       0.3333333333333333 [-]
	 SCS Opposite-Spin Scale   =       1.2000000000000000 [-]
	 SCS Same-Spin Energy      =      -0.0903373610476141 [Eh]
	 SCS Opposite-Spin Energy  =      -0.9011447294658893 [Eh]
	 SCS Correlation Energy    =      -0.9914820905135033 [Eh]
	 SCS Total Energy          =    -306.6233191799433371 [Eh]
	-----------------------------------------------------------

  Basis Set: 6-311G**
    Blend: 6-311G**
*** Psi4 exiting successfully. Buy a developer a beer!
