                               Psi4 1.3.2 release

  ==> Input File <==

--------------------------------------------------------------------------
molecule {
0 1
 H   -1.665300   -2.086800    0.006500
 C   -1.051400   -1.176200    0.005500
 C   -1.694200    0.044500    0.029000
 H   -2.775900    0.095900    0.047800
 C   -0.910800    1.181400    0.027600
 H   -1.354400    2.160600    0.045200
 C    0.458000    1.103400    0.003700
 H    1.110400    1.987000    0.001900
 C    1.114700   -0.111800   -0.019900
 C    0.326700   -1.241900   -0.018400
 H    0.818300   -2.208900   -0.036600
 O    2.483200   -0.250200   -0.044400
 H    3.140700    0.503100   -0.047700
}
set {
  geom_maxiter 400
  g_convergence GAU_LOOSE
  dynamic_level 1
}
memory 700MB
set_num_threads(8)
psi4_io.set_default_path("/home/daniele/PSI4_sctatch/Psi4-phenol")
for _ in range(1):
  try:
    set opt_coordinates both
    optimize('mp2/6-31G*')
    break
  except OptimizationConvergenceError:
    break
  else:
    try:
      set opt_coordinates cartesian
      optimize('mp2/6-31G*')
      break
    except OptimizationConvergenceError:
      pass
clean()
--------------------------------------------------------------------------

    Molecular point group: c1
  Charge       = 0
  Multiplicity = 1
  Basis Set: 6-31G*
    Blend: 6-31G*
  Basis Set: (6-31G* AUX)
    Blend: CC-PVDZ-JKFIT
  @DF-RHF Final Energy:  -305.54374316322253
    Total Energy =                       -305.5437431632225298
  Basis Set: (6-31G* AUX)
    Blend: CC-PVDZ-RI
    Molecular point group: c1
  Basis Set: 6-31G*
    Blend: 6-31G*
  Basis Set: (6-31G* AUX)
    Blend: CC-PVDZ-JKFIT
  Basis Set: (6-31G* AUX)
    Blend: CC-PVDZ-JKFIT
	 Reference Energy          =    -305.5437431632225298 [Eh]
	 Singles Energy            =      -0.0000000000000000 [Eh]
	 Same-Spin Energy          =      -0.2591113321584256 [Eh]
	 Opposite-Spin Energy      =      -0.7069306171203987 [Eh]
	 Correlation Energy        =      -0.9660419492788244 [Eh]
	 Total Energy              =    -306.5097851125013335 [Eh]
	 SCS Total Energy          =    -306.4784303478198240 [Eh]
  @DF-RHF Final Energy:  -305.55560408867319
    Total Energy =                       -305.5556040886731921
  @DF-RHF Final Energy:  -305.55548055323845
    Total Energy =                       -305.5554805532384535
  Charge       = 0
  Multiplicity = 1
  Basis Set: 6-31G*
    Blend: 6-31G*
  Basis Set: (6-31G* AUX)
    Blend: CC-PVDZ-JKFIT

    Orbital Energies [Eh]
    ---------------------

    Doubly Occupied:

       1A    -20.593845     2A    -11.302274     3A    -11.242459
       4A    -11.240059     5A    -11.234560     6A    -11.227509
       7A    -11.227440     8A     -1.396243     9A     -1.142553
      10A     -1.015901    11A     -1.000225    12A     -0.841333
      13A     -0.817174    14A     -0.725701    15A     -0.679738
      16A     -0.646610    17A     -0.604897    18A     -0.587411
      19A     -0.582010    20A     -0.562396    21A     -0.512189
      22A     -0.490138    23A     -0.477374    24A     -0.337819
      25A     -0.309956

  @DF-RHF Final Energy:  -305.55545181350510

   => Energetics <=

    Nuclear Repulsion Energy =            270.8976029819973519
    One-Electron Energy =                -951.3104807364651379
    Two-Electron Energy =                 374.8574259409626848
    Total Energy =                       -305.5554518135051012

  Dipole Moment: [D]
     X:    -0.2669      Y:     1.4862      Z:     0.0199     Total:     1.5101

  Basis Set: (6-31G* AUX)
    Blend: CC-PVDZ-RI
    Molecular point group: c1
  Basis Set: 6-31G*
    Blend: 6-31G*
  Basis Set: (6-31G* AUX)
    Blend: CC-PVDZ-JKFIT
  Basis Set: (6-31G* AUX)
    Blend: CC-PVDZ-JKFIT
	 Reference Energy          =    -305.5554518135051012 [Eh]
	 Singles Energy            =      -0.0000000000000000 [Eh]
	 Same-Spin Energy          =      -0.2589316319140089 [Eh]
	 Opposite-Spin Energy      =      -0.7081584451157952 [Eh]
	 Correlation Energy        =      -0.9670900770298041 [Eh]
	 Total Energy              =    -306.5225418905349102 [Eh]

	 ================> DF-SCS-MP2 Energies <==================
	-----------------------------------------------------------
	 SCS Same-Spin Scale       =       0.3333333333333333 [-]
	 SCS Opposite-Spin Scale   =       1.2000000000000000 [-]
	 SCS Same-Spin Energy      =      -0.0863105439713363 [Eh]
	 SCS Opposite-Spin Energy  =      -0.8497901341389542 [Eh]
	 SCS Correlation Energy    =      -0.9361006781102905 [Eh]
	 SCS Total Energy          =    -306.4915524916153799 [Eh]
	-----------------------------------------------------------

  -Total Gradient:
     Atom            X                  Y                   Z
    ------   -----------------  -----------------  -----------------
       1        0.000035533993    -0.000011587735    -0.000000868072
       2        0.000019483196     0.000075917116     0.000000630033
       3        0.000076963259    -0.000003086341    -0.000001833405
       4        0.000015977442     0.000026052068     0.000000342271
       5        0.000112857499     0.000012407829    -0.000001441325
       6       -0.000040185843     0.000018250207     0.000000714550
       7       -0.000389904423     0.000083311692     0.000006687085
       8        0.000024384700     0.000022131712    -0.000000011258
       9        0.000608046905    -0.000306124674    -0.000012023094
      10       -0.000241667006    -0.000058532051     0.000002949005
      11       -0.000028986954    -0.000021361522     0.000000385659
      12       -0.000241462597     0.000067752351     0.000004376935
      13        0.000048959828     0.000094869349     0.000000091614

  **** Optimization is complete! (in 4 steps) ****
    Final optimized geometry and variables:
    Molecular point group: c1

    Geometry (in Angstrom), charge = 0, multiplicity = 1:

    H           -1.853399133481    -2.021944065594     0.010287561311
    C           -1.251879818347    -1.116576440305     0.009532189160
    C           -1.871112285134     0.134779811264     0.032915796238
    H           -2.954446267882     0.210285975325     0.051958156871
    C           -1.087166468108     1.286659578587     0.031637215830
    H           -1.555713897809     2.267349252083     0.049677841095
    C            0.304348570917     1.194151531038     0.007231402073
    H            0.913254282565     2.097195329370     0.006327260005
    C            0.913777319763    -0.061512279412    -0.016025535292
    C            0.135592299911    -1.220803009747    -0.014924483549
    H            0.633760379768    -2.185585220695    -0.033301490654
    O            2.276791516025    -0.226853169214    -0.040706059958
    H            2.693357312673     0.652822999878    -0.038620909978

*** Psi4 exiting successfully. Buy a developer a beer!
