                               Psi4 1.3.2 release

  ==> Input File <==

--------------------------------------------------------------------------
molecule {
0 1
 N    2.306063    0.377662    0.290063
 C    0.920944    0.137582    0.104370
 C    0.417651   -1.134266   -0.190178
 C    0.024689    1.199845    0.243984
 C   -0.950825   -1.339647   -0.334245
 C   -1.341501    0.999466    0.072937
 C   -1.835182   -0.271212   -0.211059
 H    1.111928   -1.963614   -0.303170
 H    0.419598    2.180404    0.491740
 H   -1.326488   -2.334381   -0.556720
 H   -2.025529    1.836544    0.179812
 H   -2.902780   -0.428721   -0.332142
 H    2.803723    0.698037   -0.528588
 H    2.791431   -0.374888    0.759845
}
set optking {
  frozen_dihedral = ("
    3 2 1 13
  ")
}
set {
  geom_maxiter 5
  g_convergence GAU_LOOSE
  dynamic_level 1
}
memory 700MB
set_num_threads(8)
psi4_io.set_default_path("/home/daniele/PSI4_sctatch/Psi4-aniline")
for _ in range(1):
  try:
    set opt_coordinates both
    optimize('wb97x-d/6-31G*')
    break
  except OptimizationConvergenceError:
    break
  else:
    try:
      set opt_coordinates cartesian
      optimize('wb97x-d/6-31G*')
      break
    except OptimizationConvergenceError:
      pass
clean()
--------------------------------------------------------------------------

    Molecular point group: c1
  Charge       = 0
  Multiplicity = 1
  Basis Set: 6-31G*
    Blend: 6-31G*
  Basis Set: (6-31G* AUX)
    Blend: CC-PVDZ-JKFIT
  @DF-RKS Final Energy:  -287.49505213389153
    Total Energy =                       -287.4950521338915337
    Molecular point group: c1
  Basis Set: 6-31G*
    Blend: 6-31G*
  Basis Set: (6-31G* AUX)
    Blend: CC-PVDZ-JKFIT
  Basis Set: 6-31G*
    Blend: 6-31G*
  Basis Set: (6-31G* AUX)
    Blend: CC-PVDZ-JKFIT
  @DF-RKS Final Energy:  -287.49656542780622
    Total Energy =                       -287.4965654278062175
  Basis Set: 6-31G*
    Blend: 6-31G*
  Basis Set: (6-31G* AUX)
    Blend: CC-PVDZ-JKFIT
  Basis Set: 6-31G*
    Blend: 6-31G*
  @DF-RKS Final Energy:  -287.49685130321677
    Total Energy =                       -287.4968513032167721
  Basis Set: (6-31G* AUX)
    Blend: CC-PVDZ-JKFIT
  Basis Set: 6-31G*
    Blend: 6-31G*
  Basis Set: (6-31G* AUX)
    Blend: CC-PVDZ-JKFIT
  @DF-RKS Final Energy:  -287.49692519996563
    Total Energy =                       -287.4969251999656308
  Basis Set: 6-31G*
    Blend: 6-31G*
  Basis Set: (6-31G* AUX)
    Blend: CC-PVDZ-JKFIT
  Charge       = 0
  Multiplicity = 1
  Basis Set: 6-31G*
    Blend: 6-31G*
  Basis Set: (6-31G* AUX)
    Blend: CC-PVDZ-JKFIT

    Orbital Energies [Eh]
    ---------------------

    Doubly Occupied:

       1A    -14.442211     2A    -10.329637     3A    -10.298033
       4A    -10.296626     5A    -10.295032     6A    -10.293034
       7A    -10.290307     8A     -1.004586     9A     -0.932616
      10A     -0.838687    11A     -0.818004    12A     -0.697081
      13A     -0.680911    14A     -0.605713    15A     -0.576098
      16A     -0.554415    17A     -0.525873    18A     -0.506670
      19A     -0.498891    20A     -0.448061    21A     -0.432796
      22A     -0.420357    23A     -0.360395    24A     -0.321382
      25A     -0.294044

  @DF-RKS Final Energy:  -287.49694862526252

   => Energetics <=

    Nuclear Repulsion Energy =            271.1175123411764503
    One-Electron Energy =                -924.1432267745592526
    Two-Electron Energy =                 394.3784713774862780
    DFT Exchange-Correlation Energy =     -28.8440460249769473
    Empirical Dispersion Energy =          -0.0056595443890804
    VV10 Nonlocal Energy =                  0.0000000000000000
    Total Energy =                       -287.4969486252624620

  Dipole Moment: [D]
     X:     0.5726      Y:    -0.7931      Z:    -1.0875     Total:     1.4627

    Molecular point group: c1
  Basis Set: 6-31G*
    Blend: 6-31G*
  Basis Set: (6-31G* AUX)
    Blend: CC-PVDZ-JKFIT

  -Total Gradient:
     Atom            X                  Y                   Z
    ------   -----------------  -----------------  -----------------
       1       -0.001239729609     0.004850358928    -0.000092171938
       2       -0.000126545664    -0.001780642414     0.004292384232
       3        0.000212600558     0.000610764269    -0.003163244358
       4        0.000083777022    -0.000061749817     0.000067854879
       5        0.000118863662    -0.000028328206     0.000081227681
       6        0.000000223200    -0.000036479086     0.000021763142
       7       -0.000060789295     0.000079738584    -0.000022235009
       8        0.000002143208    -0.000022055638    -0.000005380122
       9       -0.000012834070     0.000030177129    -0.000005500874
      10        0.000002687831     0.000007707501    -0.000006267594
      11        0.000018003119     0.000015797141     0.000009155477
      12       -0.000000183759     0.000004879643     0.000018871709
      13        0.001009840963    -0.003765422622    -0.001145389547
      14       -0.000030114723     0.000113027786    -0.000104421010

  **** Optimization is complete! (in 5 steps) ****
    Final optimized geometry and variables:
    Molecular point group: c1

    Geometry (in Angstrom), charge = 0, multiplicity = 1:

    N            2.281825713122     0.512452382860     0.334490365982
    C            0.906805601134     0.181457502396     0.141355351997
    C            0.480540304397    -1.114686241258    -0.159827013726
    C           -0.042756948270     1.201673095258     0.230602131861
    C           -0.872447181166    -1.390731911991    -0.335009790245
    C           -1.391289436619     0.928998286609     0.028802319114
    C           -1.813644246102    -0.369232036576    -0.248254404535
    H            1.214436420166    -1.912737130535    -0.249615726557
    H            0.293945302521     2.205092973865     0.473329794070
    H           -1.189072092040    -2.406155456926    -0.555783362454
    H           -2.118475586028     1.732606617678     0.102376552873
    H           -2.868163242966    -0.582967493921    -0.393516372800
    H            2.691158108094     0.861290410295    -0.527978088473
    H            2.810570441881    -0.319478007261     0.579742295946

*** Psi4 exiting successfully. Buy a developer a beer!
