                               Psi4 1.3.2 release

  ==> Input File <==

--------------------------------------------------------------------------
molecule {
0 1
 N    2.074251   -0.380282    0.988969
 C    0.829799   -0.155347    0.421099
 C    0.117178   -1.210383   -0.166811
 C    0.284309    1.134859    0.368236
 C   -1.108906   -0.978841   -0.770492
 C   -0.937881    1.356376   -0.248898
 C   -1.647520    0.304757   -0.822159
 H    0.537107   -2.212734   -0.148438
 H    0.825665    1.963396    0.818253
 H   -1.647016   -1.811157   -1.215086
 H   -1.342758    2.364047   -0.278168
 H   -2.603488    0.481649   -1.299611
 H    2.506992    0.395801    1.464548
 H    2.229890   -1.272224    1.432135
}
set optking {
  frozen_dihedral = ("
    3 2 1 13
  ")
}
set {
  geom_maxiter 5
  g_convergence GAU_LOOSE
  dynamic_level 1
}
memory 700MB
set_num_threads(8)
psi4_io.set_default_path("/home/daniele/PSI4_sctatch/Psi4-aniline")
for _ in range(1):
  try:
    set opt_coordinates both
    optimize('wb97x-d/6-31G*')
    break
  except OptimizationConvergenceError:
    break
  else:
    try:
      set opt_coordinates cartesian
      optimize('wb97x-d/6-31G*')
      break
    except OptimizationConvergenceError:
      pass
clean()
--------------------------------------------------------------------------

    Molecular point group: c1
  Charge       = 0
  Multiplicity = 1
  Basis Set: 6-31G*
    Blend: 6-31G*
  Basis Set: (6-31G* AUX)
    Blend: CC-PVDZ-JKFIT
  @DF-RKS Final Energy:  -287.50163589369214
    Total Energy =                       -287.5016358936921392
    Molecular point group: c1
  Basis Set: 6-31G*
    Blend: 6-31G*
  Basis Set: (6-31G* AUX)
    Blend: CC-PVDZ-JKFIT
  Basis Set: 6-31G*
    Blend: 6-31G*
  Basis Set: (6-31G* AUX)
    Blend: CC-PVDZ-JKFIT
  @DF-RKS Final Energy:  -287.50168918280656
    Total Energy =                       -287.5016891828065013
  Basis Set: 6-31G*
    Blend: 6-31G*
  Basis Set: (6-31G* AUX)
    Blend: CC-PVDZ-JKFIT
  Basis Set: 6-31G*
    Blend: 6-31G*
  Basis Set: (6-31G* AUX)
    Blend: CC-PVDZ-JKFIT
  @DF-RKS Final Energy:  -287.50171108279238
    Total Energy =                       -287.5017110827923830
  Basis Set: 6-31G*
    Blend: 6-31G*
  Basis Set: (6-31G* AUX)
    Blend: CC-PVDZ-JKFIT
  Charge       = 0
  Multiplicity = 1
  Basis Set: 6-31G*
    Blend: 6-31G*
  Basis Set: (6-31G* AUX)
    Blend: CC-PVDZ-JKFIT

    Orbital Energies [Eh]
    ---------------------

    Doubly Occupied:

       1A    -14.451515     2A    -10.334617     3A    -10.293259
       4A    -10.293013     5A    -10.287998     6A    -10.286938
       7A    -10.282954     8A     -1.013186     9A     -0.928867
      10A     -0.834648    11A     -0.815284    12A     -0.697442
      13A     -0.682901    14A     -0.607237    15A     -0.591973
      16A     -0.558071    17A     -0.510479    18A     -0.505543
      19A     -0.494392    20A     -0.460688    21A     -0.429926
      22A     -0.413586    23A     -0.384132    24A     -0.317250
      25A     -0.270995

  @DF-RKS Final Energy:  -287.50172864163306

   => Energetics <=

    Nuclear Repulsion Energy =            271.6500118708682976
    One-Electron Energy =                -925.2427365601705560
    Two-Electron Energy =                 394.9479703374761357
    DFT Exchange-Correlation Energy =     -28.8513125613521382
    Empirical Dispersion Energy =          -0.0056617284547869
    VV10 Nonlocal Energy =                  0.0000000000000000
    Total Energy =                       -287.5017286416330649

  Dipole Moment: [D]
     X:     0.6704      Y:    -0.1593      Z:     1.5090     Total:     1.6589

    Molecular point group: c1
  Basis Set: 6-31G*
    Blend: 6-31G*
  Basis Set: (6-31G* AUX)
    Blend: CC-PVDZ-JKFIT

  -Total Gradient:
     Atom            X                  Y                   Z
    ------   -----------------  -----------------  -----------------
       1       -0.000974840137    -0.000101172237     0.002168958698
       2       -0.001314542918    -0.000453302443     0.002055634312
       3        0.001258834647     0.000463263019    -0.001770990814
       4        0.000358287492    -0.000162295297     0.000168663189
       5       -0.000321495806     0.000163794033    -0.000152292908
       6       -0.000357367510    -0.000021570201    -0.000250876592
       7        0.000354890681    -0.000052162909     0.000203637084
       8       -0.000075419907    -0.000058081464    -0.000022672207
       9       -0.000052220812     0.000071167563    -0.000008266176
      10        0.000082452381    -0.000092514901     0.000027630785
      11        0.000100787712     0.000050648116     0.000062791609
      12       -0.000126415915     0.000019351368    -0.000063044183
      13        0.001143945125     0.000879929686    -0.002622783232
      14       -0.000047052402    -0.000722767106     0.000266792066

  **** Optimization is complete! (in 4 steps) ****
    Final optimized geometry and variables:
    Molecular point group: c1

    Geometry (in Angstrom), charge = 0, multiplicity = 1:

    N            2.088108413210    -0.385073198690     0.975437543127
    C            0.828459158173    -0.156473516674     0.422903875983
    C            0.117617422244    -1.209173790763    -0.169354496416
    C            0.284109923183     1.132552751172     0.373122657748
    C           -1.113140655118    -0.976726439786    -0.769817066923
    C           -0.940657241443     1.357465728392    -0.246168200485
    C           -1.652631119269     0.306858422388    -0.816608825774
    H            0.540983324796    -2.210442697763    -0.158839209429
    H            0.825899622630     1.961684932690     0.822710325896
    H           -1.650251302272    -1.809002179568    -1.216283550274
    H           -1.342947084158     2.366370185417    -0.272999249364
    H           -2.611475021998     0.484816522407    -1.293276092198
    H            2.503734494841     0.401477004038     1.451800606170
    H            2.205341647810    -1.256253065346     1.472523605409

*** Psi4 exiting successfully. Buy a developer a beer!
