                               Psi4 1.3.2 release

  ==> Input File <==

--------------------------------------------------------------------------
molecule {
0 1
 N    2.335908    0.239211    0.108051
 C    0.929385    0.101999    0.082507
 C    0.371287   -1.153545   -0.180858
 C    0.077266    1.202988    0.211239
 C   -1.007519   -1.310443   -0.256979
 C   -1.301605    1.047854    0.101023
 C   -1.852144   -0.210487   -0.120977
 H    1.036085   -1.999153   -0.330843
 H    0.501688    2.186191    0.401327
 H   -1.424811   -2.294607   -0.450627
 H   -1.948031    1.915255    0.200820
 H   -2.928188   -0.332463   -0.197541
 H    2.656992    1.175586   -0.096223
 H    2.790994   -0.144863    0.925045
}
memory 700MB
set_num_threads(8)
psi4_io.set_default_path("/home/daniele/PSI4_sctatch/Psi4-aniline")
set freeze_core True
E, wfn = energy('wb97x-d/6-311+G*',return_wfn=True)
oeprop(wfn,"WIBERG_LOWDIN_INDICES")
clean()
--------------------------------------------------------------------------

    Molecular point group: c1

    Geometry (in Angstrom), charge = 0, multiplicity = 1:

       Center              X                  Y                   Z               Mass
    ------------   -----------------  -----------------  -----------------  -----------------
         N            2.335907789185     0.239211146367     0.108050992100    14.003074004430
         C            0.929384789185     0.101999146367     0.082506992100    12.000000000000
         C            0.371286789185    -1.153544853633    -0.180858007900    12.000000000000
         C            0.077265789185     1.202988146367     0.211238992100    12.000000000000
         C           -1.007519210815    -1.310442853633    -0.256979007900    12.000000000000
         C           -1.301605210815     1.047854146367     0.101022992100    12.000000000000
         C           -1.852144210815    -0.210486853633    -0.120977007900    12.000000000000
         H            1.036084789185    -1.999152853633    -0.330843007900     1.007825032230
         H            0.501687789185     2.186191146367     0.401326992100     1.007825032230
         H           -1.424811210815    -2.294606853633    -0.450627007900     1.007825032230
         H           -1.948031210815     1.915255146367     0.200819992100     1.007825032230
         H           -2.928188210815    -0.332462853633    -0.197541007900     1.007825032230
         H            2.656991789185     1.175586146367    -0.096223007900     1.007825032230
         H            2.790993789185    -0.144862853633     0.925044992100     1.007825032230

  Charge       = 0
  Multiplicity = 1
  Basis Set: 6-311+G*
    Blend: 6-311+G*
  Basis Set: (6-311+G* AUX)
    Blend: HEAVY-AUG-CC-PVTZ-JKFIT

    Orbital Energies [Eh]
    ---------------------

    Doubly Occupied:

       1A    -14.428222     2A    -10.324313     3A    -10.288425
       4A    -10.287438     5A    -10.284681     6A    -10.282301
       7A    -10.281524     8A     -1.014887     9A     -0.941754
      10A     -0.846773    11A     -0.826817    12A     -0.705451
      13A     -0.691410    14A     -0.616518    15A     -0.596077
      16A     -0.564393    17A     -0.534545    18A     -0.518097
      19A     -0.507054    20A     -0.459169    21A     -0.441823
      22A     -0.428596    23A     -0.373820    24A     -0.329919
      25A     -0.296219

  @DF-RKS Final Energy:  -287.56122060734981

   => Energetics <=

    Nuclear Repulsion Energy =            271.2361731468048447
    One-Electron Energy =                -924.2574756535063898
    Two-Electron Energy =                 394.3545215470983294
    DFT Exchange-Correlation Energy =     -28.8887884318077539
    Empirical Dispersion Energy =          -0.0056512159388255
    VV10 Nonlocal Energy =                  0.0000000000000000
    Total Energy =                       -287.5612206073498101

  Dipole Moment: [D]
     X:     0.4914      Y:     0.7016      Z:     0.9024     Total:     1.2442

*** Psi4 exiting successfully. Buy a developer a beer!
