                               Psi4 1.3.2 release

  ==> Input File <==

--------------------------------------------------------------------------
molecule {
0 1
 N    2.319752    0.219206    0.381459
 C    0.921804    0.106026    0.126186
 C    0.365354   -1.168344   -0.014553
 C    0.075859    1.217824    0.081952
 C   -0.998334   -1.324128   -0.233730
 C   -1.293370    1.060286   -0.113107
 C   -1.835001   -0.210586   -0.279953
 H    1.023878   -2.028602    0.057602
 H    0.499194    2.213096    0.198490
 H   -1.414981   -2.320751   -0.348544
 H   -1.937201    1.934878   -0.140479
 H   -2.902016   -0.334394   -0.437481
 H    2.532135    0.998324    0.993308
 H    2.874307    0.289068   -0.464937
}
memory 700MB
set_num_threads(8)
psi4_io.set_default_path("/home/daniele/PSI4_sctatch/Psi4-aniline")
set freeze_core True
E, wfn = energy('wb97x-d/6-311+G*',return_wfn=True)
oeprop(wfn,"WIBERG_LOWDIN_INDICES")
clean()
--------------------------------------------------------------------------

    Molecular point group: c1

    Geometry (in Angstrom), charge = 0, multiplicity = 1:

       Center              X                  Y                   Z               Mass
    ------------   -----------------  -----------------  -----------------  -----------------
         N            2.319751964566     0.219206061434     0.381459149034    14.003074004430
         C            0.921803964566     0.106026061434     0.126186149034    12.000000000000
         C            0.365353964566    -1.168343938566    -0.014552850966    12.000000000000
         C            0.075858964566     1.217824061434     0.081952149034    12.000000000000
         C           -0.998334035434    -1.324127938566    -0.233729850966    12.000000000000
         C           -1.293370035434     1.060286061434    -0.113106850966    12.000000000000
         C           -1.835001035434    -0.210585938566    -0.279952850966    12.000000000000
         H            1.023877964566    -2.028601938566     0.057602149034     1.007825032230
         H            0.499193964566     2.213096061434     0.198490149034     1.007825032230
         H           -1.414981035434    -2.320750938566    -0.348543850966     1.007825032230
         H           -1.937201035434     1.934878061434    -0.140478850966     1.007825032230
         H           -2.902016035434    -0.334393938566    -0.437480850966     1.007825032230
         H            2.532134964566     0.998324061434     0.993308149034     1.007825032230
         H            2.874306964566     0.289068061434    -0.464936850966     1.007825032230

  Charge       = 0
  Multiplicity = 1
  Basis Set: 6-311+G*
    Blend: 6-311+G*
  Basis Set: (6-311+G* AUX)
    Blend: HEAVY-AUG-CC-PVTZ-JKFIT

    Orbital Energies [Eh]
    ---------------------

    Doubly Occupied:

       1A    -14.424845     2A    -10.322542     3A    -10.290069
       4A    -10.288667     5A    -10.287095     6A    -10.285928
       7A    -10.282866     8A     -1.011451     9A     -0.942883
      10A     -0.848179    11A     -0.827703    12A     -0.705317
      13A     -0.690743    14A     -0.615901    15A     -0.589575
      16A     -0.562956    17A     -0.540102    18A     -0.517984
      19A     -0.508336    20A     -0.456624    21A     -0.442830
      22A     -0.430318    23A     -0.361566    24A     -0.331401
      25A     -0.307225

  @DF-RKS Final Energy:  -287.55962019716009

   => Energetics <=

    Nuclear Repulsion Energy =            270.9950409296438352
    One-Electron Energy =                -923.7681467261330681
    Two-Electron Energy =                 394.1046530719977454
    DFT Exchange-Correlation Energy =     -28.8855153362274280
    Empirical Dispersion Energy =          -0.0056521364411680
    VV10 Nonlocal Energy =                  0.0000000000000000
    Total Energy =                       -287.5596201971600863

  Dipole Moment: [D]
     X:     0.2003      Y:     1.1226      Z:    -0.5306     Total:     1.2578

*** Psi4 exiting successfully. Buy a developer a beer!
