                               Psi4 1.3.2 release

  ==> Input File <==

--------------------------------------------------------------------------
molecule {
0 1
 N    2.319461    0.326206    0.218465
 C    0.924211    0.126865    0.096093
 C    0.383812   -1.160169    0.001979
 C    0.056376    1.221751    0.042551
 C   -0.989126   -1.349205   -0.131329
 C   -1.317213    1.036557   -0.091312
 C   -1.843330   -0.250038   -0.177689
 H    1.058057   -2.011292    0.035677
 H    0.477760    2.220393    0.109465
 H   -1.392260   -2.355792   -0.200979
 H   -1.977369    1.898662   -0.129606
 H   -2.914658   -0.395621   -0.282413
 H    2.767179    0.291292    1.116265
 H    2.917603    0.275941   -0.591554
}
set optking {
  frozen_dihedral = ("
    3 2 1 13
  ")
}
set {
  geom_maxiter 5
  g_convergence GAU_LOOSE
  dynamic_level 1
}
memory 700MB
set_num_threads(8)
psi4_io.set_default_path("/home/daniele/PSI4_sctatch/Psi4-aniline")
for _ in range(1):
  try:
    set opt_coordinates both
    optimize('wb97x-d/6-31G*')
    break
  except OptimizationConvergenceError:
    break
  else:
    try:
      set opt_coordinates cartesian
      optimize('wb97x-d/6-31G*')
      break
    except OptimizationConvergenceError:
      pass
clean()
--------------------------------------------------------------------------

    Molecular point group: c1
  Charge       = 0
  Multiplicity = 1
  Basis Set: 6-31G*
    Blend: 6-31G*
  Basis Set: (6-31G* AUX)
    Blend: CC-PVDZ-JKFIT
  @DF-RKS Final Energy:  -287.48763333999659
    Total Energy =                       -287.4876333399965915
    Molecular point group: c1
  Basis Set: 6-31G*
    Blend: 6-31G*
  Basis Set: (6-31G* AUX)
    Blend: CC-PVDZ-JKFIT
  Basis Set: 6-31G*
    Blend: 6-31G*
  Basis Set: (6-31G* AUX)
    Blend: CC-PVDZ-JKFIT
  @DF-RKS Final Energy:  -287.48920832467377
    Total Energy =                       -287.4892083246737116
  Basis Set: 6-31G*
    Blend: 6-31G*
  Basis Set: (6-31G* AUX)
    Blend: CC-PVDZ-JKFIT
  Basis Set: 6-31G*
    Blend: 6-31G*
  @DF-RKS Final Energy:  -287.48920829515453
    Total Energy =                       -287.4892082951545262
  Basis Set: (6-31G* AUX)
    Blend: CC-PVDZ-JKFIT
  Basis Set: 6-31G*
    Blend: 6-31G*
  Basis Set: (6-31G* AUX)
    Blend: CC-PVDZ-JKFIT
  @DF-RKS Final Energy:  -287.49094905103419
    Total Energy =                       -287.4909490510341357
  Basis Set: 6-31G*
    Blend: 6-31G*
  Basis Set: (6-31G* AUX)
    Blend: CC-PVDZ-JKFIT
  Charge       = 0
  Multiplicity = 1
  Basis Set: 6-31G*
    Blend: 6-31G*
  Basis Set: (6-31G* AUX)
    Blend: CC-PVDZ-JKFIT

    Orbital Energies [Eh]
    ---------------------

    Doubly Occupied:

       1A    -14.429551     2A    -10.325640     3A    -10.296477
       4A    -10.295146     5A    -10.294295     6A    -10.292893
       7A    -10.289004     8A     -0.993703     9A     -0.929514
      10A     -0.836714    11A     -0.816008    12A     -0.693014
      13A     -0.680009    14A     -0.604847    15A     -0.580716
      16A     -0.552703    17A     -0.530264    18A     -0.507296
      19A     -0.496982    20A     -0.443456    21A     -0.431122
      22A     -0.419641    23A     -0.330911    24A     -0.319693
      25A     -0.299946

  @DF-RKS Final Energy:  -287.49264234458394

   => Energetics <=

    Nuclear Repulsion Energy =            270.9339385275929999
    One-Electron Energy =                -923.9079140177203726
    Two-Electron Energy =                 394.3364320297117160
    DFT Exchange-Correlation Energy =     -28.8494603901010720
    Empirical Dispersion Energy =          -0.0056384940672671
    VV10 Nonlocal Energy =                  0.0000000000000000
    Total Energy =                       -287.4926423445839987

  Dipole Moment: [D]
     X:     0.5254      Y:    -0.9120      Z:     0.3104     Total:     1.0973

    Molecular point group: c1
  Basis Set: 6-31G*
    Blend: 6-31G*
  Basis Set: (6-31G* AUX)
    Blend: CC-PVDZ-JKFIT

  -Total Gradient:
     Atom            X                  Y                   Z
    ------   -----------------  -----------------  -----------------
       1        0.001879728240    -0.013219936070     0.001897928833
       2        0.001133273038     0.003456795310     0.001649331477
       3       -0.001350659139    -0.000598804552     0.000133770061
       4        0.000612091246    -0.000102033020    -0.002569469338
       5        0.000094447310    -0.000401038226     0.000224306454
       6       -0.000000172756    -0.000049663115    -0.000234869050
       7        0.000138905955     0.000062678105     0.000000983144
       8        0.000156349382     0.000149256448    -0.000157271250
       9        0.000042556732    -0.000012021840     0.000259009127
      10       -0.000105810019     0.000010615404     0.000049102994
      11        0.000055782352    -0.000035036436     0.000007604752
      12       -0.000037780695     0.000000010426     0.000018142090
      13        0.000089832964     0.003558905446     0.000141904452
      14       -0.002757379125     0.007198699614    -0.001445448838

    Molecular point group: c1

    Geometry (in Angstrom), charge = 0, multiplicity = 1:

    N            2.318745895906     0.413638448958     0.177852493343
    C            0.920141693893     0.139051986662     0.087522513858
    C            0.404249279369    -1.157094609645    -0.019610513912
    C            0.038452405443     1.219677023028     0.056650812514
    C           -0.965070949236    -1.367189987778    -0.145386082394
    C           -1.333412465412     1.009699961882    -0.050409386526
    C           -1.839315377164    -0.283019663316    -0.154534071284
    H            1.088350320873    -2.002901677763    -0.003879633628
    H            0.452163117201     2.221139239994     0.117990949097
    H           -1.351410265142    -2.378958041266    -0.229155642011
    H           -2.009080234993     1.860007099505    -0.067593461435
    H           -2.909082245801    -0.445342433386    -0.247415755255
    H            2.690130070251     0.357058497836     1.119304425033
    H            2.862380286050    -0.132627297339    -0.472229970657

*** Psi4 exiting successfully. Buy a developer a beer!
