                               Psi4 1.3.2 release

  ==> Input File <==

--------------------------------------------------------------------------
molecule {
0 1
 N    1.829178   -0.364872    1.463107
 C    0.721149   -0.125087    0.582108
 C    0.175830   -1.208981   -0.107880
 C    0.175764    1.148673    0.383676
 C   -0.902795   -1.028008   -0.973442
 C   -0.898956    1.332833   -0.484680
 C   -1.441340    0.242903   -1.163684
 H    0.609879   -2.191440    0.048317
 H    0.598945    1.997987    0.914497
 H   -1.316643   -1.881354   -1.501978
 H   -1.310952    2.327471   -0.627339
 H   -2.280030    0.383975   -1.839582
 H    1.548592   -0.167549    2.418681
 H    2.576941    0.286339    1.260959
}
memory 700MB
set_num_threads(8)
psi4_io.set_default_path("/home/daniele/PSI4_sctatch/Psi4-aniline")
set freeze_core True
E, wfn = energy('wb97x-d/6-311+G*',return_wfn=True)
oeprop(wfn,"WIBERG_LOWDIN_INDICES")
clean()
--------------------------------------------------------------------------

    Molecular point group: c1

    Geometry (in Angstrom), charge = 0, multiplicity = 1:

       Center              X                  Y                   Z               Mass
    ------------   -----------------  -----------------  -----------------  -----------------
         N            1.829177891541    -0.364872071333     1.463107030229    14.003074004430
         C            0.721148891541    -0.125087071333     0.582108030229    12.000000000000
         C            0.175829891541    -1.208981071333    -0.107879969771    12.000000000000
         C            0.175763891541     1.148672928667     0.383676030229    12.000000000000
         C           -0.902795108459    -1.028008071333    -0.973441969771    12.000000000000
         C           -0.898956108459     1.332832928667    -0.484679969771    12.000000000000
         C           -1.441340108459     0.242902928667    -1.163683969771    12.000000000000
         H            0.609878891541    -2.191440071333     0.048317030229     1.007825032230
         H            0.598944891541     1.997986928667     0.914497030229     1.007825032230
         H           -1.316643108459    -1.881354071333    -1.501977969771     1.007825032230
         H           -1.310952108459     2.327470928667    -0.627338969771     1.007825032230
         H           -2.280030108459     0.383974928667    -1.839581969771     1.007825032230
         H            1.548591891541    -0.167549071333     2.418681030229     1.007825032230
         H            2.576940891541     0.286338928667     1.260959030229     1.007825032230

  Charge       = 0
  Multiplicity = 1
  Basis Set: 6-311+G*
    Blend: 6-311+G*
  Basis Set: (6-311+G* AUX)
    Blend: HEAVY-AUG-CC-PVTZ-JKFIT

    Orbital Energies [Eh]
    ---------------------

    Doubly Occupied:

       1A    -14.422746     2A    -10.321669     3A    -10.292506
       4A    -10.290537     5A    -10.290138     6A    -10.289443
       7A    -10.284751     8A     -1.011571     9A     -0.944030
      10A     -0.849342    11A     -0.828779    12A     -0.706059
      13A     -0.690295    14A     -0.615519    15A     -0.580973
      16A     -0.562952    17A     -0.545330    18A     -0.517916
      19A     -0.509901    20A     -0.454496    21A     -0.443468
      22A     -0.432921    23A     -0.347150    24A     -0.332596
      25A     -0.324249

  @DF-RKS Final Energy:  -287.55782428639810

   => Energetics <=

    Nuclear Repulsion Energy =            270.6926631490796353
    One-Electron Energy =                -923.1295753178860650
    Two-Electron Energy =                 393.7662745911909496
    DFT Exchange-Correlation Energy =     -28.8815240904910340
    Empirical Dispersion Energy =          -0.0056626182915917
    VV10 Nonlocal Energy =                  0.0000000000000000
    Total Energy =                       -287.5578242863981018

  Dipole Moment: [D]
     X:    -0.2397      Y:     1.3634      Z:     0.3506     Total:     1.4281

*** Psi4 exiting successfully. Buy a developer a beer!
