                               Psi4 1.3.2 release

  ==> Input File <==

--------------------------------------------------------------------------
molecule {
0 1
 N    2.281826    0.512452    0.334490
 C    0.906806    0.181458    0.141355
 C    0.480540   -1.114686   -0.159827
 C   -0.042757    1.201673    0.230602
 C   -0.872447   -1.390732   -0.335010
 C   -1.391289    0.928998    0.028802
 C   -1.813644   -0.369232   -0.248254
 H    1.214436   -1.912737   -0.249616
 H    0.293945    2.205093    0.473330
 H   -1.189072   -2.406155   -0.555783
 H   -2.118476    1.732607    0.102377
 H   -2.868163   -0.582967   -0.393516
 H    2.691158    0.861290   -0.527978
 H    2.810570   -0.319478    0.579742
}
memory 700MB
set_num_threads(8)
psi4_io.set_default_path("/home/daniele/PSI4_sctatch/Psi4-aniline")
set freeze_core True
E, wfn = energy('wb97x-d/6-311+G*',return_wfn=True)
oeprop(wfn,"WIBERG_LOWDIN_INDICES")
clean()
--------------------------------------------------------------------------

    Molecular point group: c1

    Geometry (in Angstrom), charge = 0, multiplicity = 1:

       Center              X                  Y                   Z               Mass
    ------------   -----------------  -----------------  -----------------  -----------------
         N            2.281825854558     0.512452006439     0.334490121902    14.003074004430
         C            0.906805854558     0.181458006439     0.141355121902    12.000000000000
         C            0.480539854558    -1.114685993561    -0.159826878098    12.000000000000
         C           -0.042757145442     1.201673006439     0.230602121902    12.000000000000
         C           -0.872447145442    -1.390731993561    -0.335009878098    12.000000000000
         C           -1.391289145442     0.928998006439     0.028802121902    12.000000000000
         C           -1.813644145442    -0.369231993561    -0.248253878098    12.000000000000
         H            1.214435854558    -1.912736993561    -0.249615878098     1.007825032230
         H            0.293944854558     2.205093006439     0.473330121902     1.007825032230
         H           -1.189072145442    -2.406154993561    -0.555782878098     1.007825032230
         H           -2.118476145442     1.732607006439     0.102377121902     1.007825032230
         H           -2.868163145442    -0.582966993561    -0.393515878098     1.007825032230
         H            2.691157854558     0.861290006439    -0.527977878098     1.007825032230
         H            2.810569854558    -0.319477993561     0.579742121902     1.007825032230

  Charge       = 0
  Multiplicity = 1
  Basis Set: 6-311+G*
    Blend: 6-311+G*
  Basis Set: (6-311+G* AUX)
    Blend: HEAVY-AUG-CC-PVTZ-JKFIT

    Orbital Energies [Eh]
    ---------------------

    Doubly Occupied:

       1A    -14.428820     2A    -10.323841     3A    -10.290677
       4A    -10.289269     5A    -10.287847     6A    -10.285354
       7A    -10.283172     8A     -1.015681     9A     -0.943977
      10A     -0.848916    11A     -0.828390    12A     -0.706993
      13A     -0.690974    14A     -0.616231    15A     -0.586714
      16A     -0.563594    17A     -0.537442    18A     -0.517538
      19A     -0.509131    20A     -0.458784    21A     -0.443343
      22A     -0.430555    23A     -0.372254    24A     -0.331983
      25A     -0.305442

  @DF-RKS Final Energy:  -287.56042609907632

   => Energetics <=

    Nuclear Repulsion Energy =            271.1175368720793131
    One-Electron Energy =                -923.9670859256050335
    Two-Electron Energy =                 394.1802315684731752
    DFT Exchange-Correlation Energy =     -28.8854490695964401
    Empirical Dispersion Energy =          -0.0056595444273045
    VV10 Nonlocal Energy =                  0.0000000000000000
    Total Energy =                       -287.5604260990763237

  Dipole Moment: [D]
     X:     0.4909      Y:    -0.8224      Z:    -1.0611     Total:     1.4294

*** Psi4 exiting successfully. Buy a developer a beer!
