                               Psi4 1.3.2 release

  ==> Input File <==

--------------------------------------------------------------------------
molecule {
0 1
 N    2.332495    0.245285    0.109755
 C    0.929956    0.102770    0.087014
 C    0.372760   -1.153890   -0.176815
 C    0.075832    1.202888    0.211613
 C   -1.005299   -1.311819   -0.256581
 C   -1.302543    1.046314    0.096495
 C   -1.851758   -0.212342   -0.125578
 H    1.038140   -2.000104   -0.322178
 H    0.498359    2.186463    0.404360
 H   -1.420993   -2.296840   -0.449964
 H   -1.949504    1.913742    0.193715
 H   -2.927804   -0.335689   -0.205905
 H    2.660434    1.178873   -0.092392
 H    2.806384   -0.171948    0.898335
}
set optking {
  frozen_dihedral = ("
    3 2 1 13
  ")
}
set {
  geom_maxiter 5
  g_convergence GAU_LOOSE
  dynamic_level 1
}
memory 700MB
set_num_threads(8)
psi4_io.set_default_path("/home/daniele/PSI4_sctatch/Psi4-aniline")
for _ in range(1):
  try:
    set opt_coordinates both
    optimize('wb97x-d/6-31G*')
    break
  except OptimizationConvergenceError:
    break
  else:
    try:
      set opt_coordinates cartesian
      optimize('wb97x-d/6-31G*')
      break
    except OptimizationConvergenceError:
      pass
clean()
--------------------------------------------------------------------------

    Molecular point group: c1
  Charge       = 0
  Multiplicity = 1
  Basis Set: 6-31G*
    Blend: 6-31G*
  Basis Set: (6-31G* AUX)
    Blend: CC-PVDZ-JKFIT
  @DF-RKS Final Energy:  -287.49733059446373
    Total Energy =                       -287.4973305944637332
    Molecular point group: c1
  Basis Set: 6-31G*
    Blend: 6-31G*
  Basis Set: (6-31G* AUX)
    Blend: CC-PVDZ-JKFIT
  Basis Set: 6-31G*
    Blend: 6-31G*
  Basis Set: (6-31G* AUX)
    Blend: CC-PVDZ-JKFIT
  @DF-RKS Final Energy:  -287.49733536186545
    Total Energy =                       -287.4973353618654528
  Basis Set: 6-31G*
    Blend: 6-31G*
  Basis Set: (6-31G* AUX)
    Blend: CC-PVDZ-JKFIT
  Basis Set: 6-31G*
    Blend: 6-31G*
  @DF-RKS Final Energy:  -287.49734080498575
    Total Energy =                       -287.4973408049857539
  Basis Set: (6-31G* AUX)
    Blend: CC-PVDZ-JKFIT
  Basis Set: 6-31G*
    Blend: 6-31G*
  Basis Set: (6-31G* AUX)
    Blend: CC-PVDZ-JKFIT
  @DF-RKS Final Energy:  -287.49734389413072
    Total Energy =                       -287.4973438941307791
  Basis Set: 6-31G*
    Blend: 6-31G*
  Basis Set: (6-31G* AUX)
    Blend: CC-PVDZ-JKFIT
  Charge       = 0
  Multiplicity = 1
  Basis Set: 6-31G*
    Blend: 6-31G*
  Basis Set: (6-31G* AUX)
    Blend: CC-PVDZ-JKFIT

    Orbital Energies [Eh]
    ---------------------

    Doubly Occupied:

       1A    -14.441314     2A    -10.329767     3A    -10.295483
       4A    -10.294490     5A    -10.291533     6A    -10.289645
       7A    -10.288287     8A     -1.003193     9A     -0.930025
      10A     -0.836216    11A     -0.816094    12A     -0.695183
      13A     -0.680968    14A     -0.605574    15A     -0.585105
      16A     -0.554887    17A     -0.522334    18A     -0.507100
      19A     -0.496506    20A     -0.448083    21A     -0.430965
      22A     -0.418093    23A     -0.361641    24A     -0.319004
      25A     -0.284175

  @DF-RKS Final Energy:  -287.49734542143472

   => Energetics <=

    Nuclear Repulsion Energy =            271.2361920106959587
    One-Electron Energy =                -924.4505375180484634
    Two-Electron Energy =                 394.5708727394494986
    DFT Exchange-Correlation Energy =     -28.8482214374223993
    Empirical Dispersion Energy =          -0.0056512161092926
    VV10 Nonlocal Energy =                  0.0000000000000000
    Total Energy =                       -287.4973454214347157

  Dipole Moment: [D]
     X:     0.5884      Y:     0.7035      Z:     0.9788     Total:     1.3414

    Molecular point group: c1
  Basis Set: 6-31G*
    Blend: 6-31G*
  Basis Set: (6-31G* AUX)
    Blend: CC-PVDZ-JKFIT

  -Total Gradient:
     Atom            X                  Y                   Z
    ------   -----------------  -----------------  -----------------
       1       -0.000385904436     0.002130330844     0.005128496820
       2       -0.000047869413    -0.001854934521     0.004862718121
       3        0.000102690746     0.000966927450    -0.004257206110
       4       -0.000079281545     0.000017571874    -0.000028166168
       5       -0.000072666247     0.000024620635     0.000006802513
       6        0.000060135348     0.000056614838     0.000039597657
       7       -0.000000169510    -0.000093997778    -0.000012138777
       8       -0.000002925469     0.000023142246    -0.000116427689
       9        0.000019152480     0.000010015132    -0.000114566433
      10        0.000012623102    -0.000002648121    -0.000003320256
      11       -0.000008177350    -0.000014875992     0.000001932891
      12        0.000020266446     0.000006076006     0.000001182306
      13        0.000327035237    -0.001291468750    -0.005536471704
      14        0.000125537975     0.000004675601     0.000049725966

  **** Optimization is complete! (in 5 steps) ****
    Final optimized geometry and variables:
    Molecular point group: c1

    Geometry (in Angstrom), charge = 0, multiplicity = 1:

    N            2.335907727261     0.239211251631     0.108051397363
    C            0.929384584572     0.101999007535     0.082506556160
    C            0.371286547457    -1.153544635507    -0.180857826509
    C            0.077265619230     1.202988228099     0.211238549069
    C           -1.007519241080    -1.310442712908    -0.256979191294
    C           -1.301604840288     1.047854241513     0.101023153360
    C           -1.852144021867    -0.210487314961    -0.120976800271
    H            1.036085209067    -1.999152613943    -0.330842645835
    H            0.501688116105     2.186190770084     0.401326503404
    H           -1.424810606240    -2.294606979368    -0.450627278970
    H           -1.948030755456     1.915254748863     0.200820199157
    H           -2.928188224465    -0.332462562670    -0.197541256627
    H            2.656992149406     1.175586142926    -0.096222601248
    H            2.790993533145    -0.144863176757     0.925045491253

*** Psi4 exiting successfully. Buy a developer a beer!
