                               Psi4 1.3.2 release

  ==> Input File <==

--------------------------------------------------------------------------
molecule {
0 1
 N    2.049383    0.601304    1.027776
 C    0.797313    0.253552    0.412613
 C    0.630768   -1.047586   -0.059876
 C   -0.247190    1.169601    0.256887
 C   -0.560886   -1.431613   -0.669644
 C   -1.436794    0.789475   -0.357272
 C   -1.597073   -0.514160   -0.820736
 H    1.452461   -1.746693    0.060299
 H   -0.121623    2.186607    0.622080
 H   -0.678450   -2.448959   -1.031834
 H   -2.239982    1.511848   -0.473044
 H   -2.525476   -0.812582   -1.299001
 H    2.461324    1.410294    0.572102
 H    1.918346    0.840791    2.010100
}
memory 700MB
set_num_threads(8)
psi4_io.set_default_path("/home/daniele/PSI4_sctatch/Psi4-aniline")
set freeze_core True
E, wfn = energy('wb97x-d/6-311+G*',return_wfn=True)
oeprop(wfn,"WIBERG_LOWDIN_INDICES")
clean()
--------------------------------------------------------------------------

    Molecular point group: c1

    Geometry (in Angstrom), charge = 0, multiplicity = 1:

       Center              X                  Y                   Z               Mass
    ------------   -----------------  -----------------  -----------------  -----------------
         N            2.049382957381     0.601303955286     1.027776060221    14.003074004430
         C            0.797312957381     0.253551955286     0.412613060221    12.000000000000
         C            0.630767957381    -1.047586044714    -0.059875939779    12.000000000000
         C           -0.247190042619     1.169600955286     0.256887060221    12.000000000000
         C           -0.560886042619    -1.431613044714    -0.669643939779    12.000000000000
         C           -1.436794042619     0.789474955286    -0.357271939779    12.000000000000
         C           -1.597073042619    -0.514160044714    -0.820735939779    12.000000000000
         H            1.452460957381    -1.746693044714     0.060299060221     1.007825032230
         H           -0.121623042619     2.186606955286     0.622080060221     1.007825032230
         H           -0.678450042619    -2.448959044714    -1.031833939779     1.007825032230
         H           -2.239982042619     1.511847955286    -0.473043939779     1.007825032230
         H           -2.525476042619    -0.812582044714    -1.299000939779     1.007825032230
         H            2.461323957381     1.410293955286     0.572102060221     1.007825032230
         H            1.918345957381     0.840790955286     2.010100060221     1.007825032230

  Charge       = 0
  Multiplicity = 1
  Basis Set: 6-311+G*
    Blend: 6-311+G*
  Basis Set: (6-311+G* AUX)
    Blend: HEAVY-AUG-CC-PVTZ-JKFIT

    Orbital Energies [Eh]
    ---------------------

    Doubly Occupied:

       1A    -14.422292     2A    -10.321131     3A    -10.291760
       4A    -10.289972     5A    -10.289352     6A    -10.289033
       7A    -10.284214     8A     -1.008398     9A     -0.943711
      10A     -0.849441    11A     -0.828623    12A     -0.705578
      13A     -0.690223    14A     -0.615577    15A     -0.581181
      16A     -0.562134    17A     -0.545549    18A     -0.517818
      19A     -0.509646    20A     -0.454947    21A     -0.443397
      22A     -0.432148    23A     -0.342582    24A     -0.332658
      25A     -0.325385

  @DF-RKS Final Energy:  -287.55795426565345

   => Energetics <=

    Nuclear Repulsion Energy =            270.7554944816324110
    One-Electron Energy =                -923.2811774802744367
    Two-Electron Energy =                 393.8544578493336985
    DFT Exchange-Correlation Energy =     -28.8810726978465340
    Empirical Dispersion Energy =          -0.0056564184986357
    VV10 Nonlocal Energy =                  0.0000000000000000
    Total Energy =                       -287.5579542656534500

  Dipole Moment: [D]
     X:    -0.6243      Y:     1.1852      Z:     0.2385     Total:     1.3606

*** Psi4 exiting successfully. Buy a developer a beer!
