                               Psi4 1.3.2 release

  ==> Input File <==

--------------------------------------------------------------------------
molecule {
0 1
 N    2.302915    0.257861    0.374023
 C    0.924921    0.116169    0.108375
 C    0.381933   -1.164148   -0.023864
 C    0.065043    1.219489    0.084182
 C   -0.983712   -1.331076   -0.241080
 C   -1.306390    1.044938   -0.090377
 C   -1.834530   -0.229589   -0.270024
 H    1.041568   -2.026996    0.042869
 H    0.477386    2.219541    0.207131
 H   -1.387676   -2.333035   -0.356831
 H   -1.960608    1.912803   -0.105281
 H   -2.903819   -0.364618   -0.419693
 H    2.566400    1.027398    0.970753
 H    2.945585    0.080634   -0.382622
}
set optking {
  frozen_dihedral = ("
    3 2 1 13
  ")
}
set {
  geom_maxiter 5
  g_convergence GAU_LOOSE
  dynamic_level 1
}
memory 700MB
set_num_threads(8)
psi4_io.set_default_path("/home/daniele/PSI4_sctatch/Psi4-aniline")
for _ in range(1):
  try:
    set opt_coordinates both
    optimize('wb97x-d/6-31G*')
    break
  except OptimizationConvergenceError:
    break
  else:
    try:
      set opt_coordinates cartesian
      optimize('wb97x-d/6-31G*')
      break
    except OptimizationConvergenceError:
      pass
clean()
--------------------------------------------------------------------------

    Molecular point group: c1
  Charge       = 0
  Multiplicity = 1
  Basis Set: 6-31G*
    Blend: 6-31G*
  Basis Set: (6-31G* AUX)
    Blend: CC-PVDZ-JKFIT
  @DF-RKS Final Energy:  -287.49523760373972
    Total Energy =                       -287.4952376037397244
    Molecular point group: c1
  Basis Set: 6-31G*
    Blend: 6-31G*
  Basis Set: (6-31G* AUX)
    Blend: CC-PVDZ-JKFIT
  Basis Set: 6-31G*
    Blend: 6-31G*
  Basis Set: (6-31G* AUX)
    Blend: CC-PVDZ-JKFIT
  @DF-RKS Final Energy:  -287.49535935692728
    Total Energy =                       -287.4953593569272812
  Basis Set: 6-31G*
    Blend: 6-31G*
  Basis Set: (6-31G* AUX)
    Blend: CC-PVDZ-JKFIT
  Basis Set: 6-31G*
    Blend: 6-31G*
  @DF-RKS Final Energy:  -287.49552332276096
    Total Energy =                       -287.4955233227609028
  Basis Set: (6-31G* AUX)
    Blend: CC-PVDZ-JKFIT
  Basis Set: 6-31G*
    Blend: 6-31G*
  Basis Set: (6-31G* AUX)
    Blend: CC-PVDZ-JKFIT
  @DF-RKS Final Energy:  -287.49562933903371
    Total Energy =                       -287.4956293390337692
  Basis Set: 6-31G*
    Blend: 6-31G*
  Basis Set: (6-31G* AUX)
    Blend: CC-PVDZ-JKFIT
  Charge       = 0
  Multiplicity = 1
  Basis Set: 6-31G*
    Blend: 6-31G*
  Basis Set: (6-31G* AUX)
    Blend: CC-PVDZ-JKFIT

    Orbital Energies [Eh]
    ---------------------

    Doubly Occupied:

       1A    -14.437725     2A    -10.327972     3A    -10.297207
       4A    -10.295802     5A    -10.293961     6A    -10.293368
       7A    -10.289662     8A     -0.999767     9A     -0.931219
      10A     -0.837704    11A     -0.817006    12A     -0.695140
      13A     -0.680385    14A     -0.605093    15A     -0.578620
      16A     -0.553441    17A     -0.527917    18A     -0.506953
      19A     -0.497872    20A     -0.445646    21A     -0.432005
      22A     -0.419905    23A     -0.349171    24A     -0.320565
      25A     -0.295274

  @DF-RKS Final Energy:  -287.49574950845812

   => Energetics <=

    Nuclear Repulsion Energy =            270.9950445807144774
    One-Electron Energy =                -923.9594786984268922
    Two-Electron Energy =                 394.3193810349337696
    DFT Exchange-Correlation Energy =     -28.8450442892765153
    Empirical Dispersion Energy =          -0.0056521364028621
    VV10 Nonlocal Energy =                  0.0000000000000000
    Total Energy =                       -287.4957495084581183

  Dipole Moment: [D]
     X:     0.3194      Y:     1.1382      Z:    -0.5627     Total:     1.3092

    Molecular point group: c1
  Basis Set: 6-31G*
    Blend: 6-31G*
  Basis Set: (6-31G* AUX)
    Blend: CC-PVDZ-JKFIT

  -Total Gradient:
     Atom            X                  Y                   Z
    ------   -----------------  -----------------  -----------------
       1       -0.000540958720     0.003265406979    -0.002530337201
       2        0.001893501965    -0.000299287810    -0.003368348015
       3       -0.002000650335    -0.000570515485     0.002955216466
       4       -0.000644885062    -0.000182580812    -0.000071761099
       5        0.000921111227    -0.000263895111     0.000182338454
       6        0.000178368055    -0.000020372846    -0.000254127253
       7       -0.000445997747     0.000395934532     0.000049203468
       8        0.000180844903     0.000097290268     0.000022461866
       9        0.000087617141     0.000044153017    -0.000038224527
      10       -0.000044274073     0.000016359621    -0.000012231143
      11       -0.000039325414    -0.000009077988     0.000054239481
      12        0.000113627169    -0.000028673553     0.000013264325
      13       -0.000267228944    -0.002556595372     0.003640724580
      14        0.000528281661     0.000162695187    -0.000615678642

    Molecular point group: c1

    Geometry (in Angstrom), charge = 0, multiplicity = 1:

    N            2.318665446455     0.219579372171     0.381709599425
    C            0.921173866681     0.106538041670     0.123439498758
    C            0.366595469662    -1.167977580892    -0.014249262217
    C            0.075835895049     1.218524768249     0.081687039082
    C           -0.997821335112    -1.324253302408    -0.234233841871
    C           -1.293862872198     1.059883069910    -0.110830885956
    C           -1.834376524713    -0.211340621681    -0.279955078611
    H            1.024176696777    -2.028905545063     0.058957958012
    H            0.498142837938     2.213913443536     0.200338323909
    H           -1.413779089768    -2.321245530951    -0.348411255712
    H           -1.938206627543     1.934114302615    -0.137852303809
    H           -2.901707832579    -0.335447290130    -0.437248107435
    H            2.531137563356     1.000013857228     0.991455696945
    H            2.875970976727     0.280464786999    -0.461586448235

*** Psi4 exiting successfully. Buy a developer a beer!
