                               Psi4 1.3.2 release

  ==> Input File <==

--------------------------------------------------------------------------
molecule {
0 1
 N    2.290795    0.442906    0.284248
 C    0.915264    0.161912    0.130737
 C    0.425518   -1.146834    0.065883
 C    0.016611    1.224345   -0.005160
 C   -0.937224   -1.385579   -0.083169
 C   -1.340094    0.981622   -0.188675
 C   -1.826316   -0.323349   -0.219351
 H    1.120039   -1.980274    0.141835
 H    0.396655    2.240302    0.049356
 H   -1.301838   -2.408477   -0.115129
 H   -2.024449    1.818951   -0.292360
 H   -2.887948   -0.510177   -0.348681
 H    2.816249   -0.296790    0.729071
 H    2.751200    0.791702   -0.544634
}
memory 700MB
set_num_threads(8)
psi4_io.set_default_path("/home/daniele/PSI4_sctatch/Psi4-aniline")
set freeze_core True
E, wfn = energy('wb97x-d/6-311+G*',return_wfn=True)
oeprop(wfn,"WIBERG_LOWDIN_INDICES")
clean()
--------------------------------------------------------------------------

    Molecular point group: c1

    Geometry (in Angstrom), charge = 0, multiplicity = 1:

       Center              X                  Y                   Z               Mass
    ------------   -----------------  -----------------  -----------------  -----------------
         N            2.290795054030     0.442906121286     0.284247935242    14.003074004430
         C            0.915264054030     0.161912121286     0.130736935242    12.000000000000
         C            0.425518054030    -1.146833878714     0.065882935242    12.000000000000
         C            0.016611054030     1.224345121286    -0.005160064758    12.000000000000
         C           -0.937223945970    -1.385578878714    -0.083169064758    12.000000000000
         C           -1.340093945970     0.981622121286    -0.188675064758    12.000000000000
         C           -1.826315945970    -0.323348878714    -0.219351064758    12.000000000000
         H            1.120039054030    -1.980273878714     0.141834935242     1.007825032230
         H            0.396655054030     2.240302121286     0.049355935242     1.007825032230
         H           -1.301837945970    -2.408476878714    -0.115129064758     1.007825032230
         H           -2.024448945970     1.818951121286    -0.292360064758     1.007825032230
         H           -2.887947945970    -0.510176878714    -0.348681064758     1.007825032230
         H            2.816249054030    -0.296789878714     0.729070935242     1.007825032230
         H            2.751200054030     0.791702121286    -0.544634064758     1.007825032230

  Charge       = 0
  Multiplicity = 1
  Basis Set: 6-311+G*
    Blend: 6-311+G*
  Basis Set: (6-311+G* AUX)
    Blend: HEAVY-AUG-CC-PVTZ-JKFIT

    Orbital Energies [Eh]
    ---------------------

    Doubly Occupied:

       1A    -14.427320     2A    -10.324207     3A    -10.288567
       4A    -10.287607     5A    -10.284867     6A    -10.282592
       7A    -10.281501     8A     -1.014709     9A     -0.941752
      10A     -0.846893    11A     -0.826737    12A     -0.705448
      13A     -0.691415    14A     -0.616698    15A     -0.596330
      16A     -0.564639    17A     -0.535058    18A     -0.518248
      19A     -0.507161    20A     -0.458950    21A     -0.442079
      22A     -0.428737    23A     -0.372283    24A     -0.330069
      25A     -0.296601

  @DF-RKS Final Energy:  -287.56098867350397

   => Energetics <=

    Nuclear Repulsion Energy =            271.2652826981213252
    One-Electron Energy =                -924.3143142693817254
    Two-Electron Energy =                 394.3831441576247698
    DFT Exchange-Correlation Energy =     -28.8894411530923847
    Empirical Dispersion Energy =          -0.0056601067758776
    VV10 Nonlocal Energy =                  0.0000000000000000
    Total Energy =                       -287.5609886735039140

  Dipole Moment: [D]
     X:     0.7903      Y:    -0.6834      Z:    -0.7237     Total:     1.2710

*** Psi4 exiting successfully. Buy a developer a beer!
