                               Psi4 1.3.2 release

  ==> Input File <==

--------------------------------------------------------------------------
molecule {
0 1
 N    2.012076    0.632543    1.000194
 C    0.782924    0.255523    0.428153
 C    0.627000   -1.041398   -0.046148
 C   -0.250269    1.162357    0.247100
 C   -0.548614   -1.433178   -0.647625
 C   -1.419138    0.778645   -0.371552
 C   -1.575198   -0.525749   -0.815103
 H    1.449451   -1.730318    0.066293
 H   -0.125395    2.178920    0.600292
 H   -0.659198   -2.449252   -1.003547
 H   -2.216229    1.494358   -0.504785
 H   -2.490758   -0.827507   -1.296885
 H    2.435257    1.443650    0.580793
 H    2.027862    0.672106    2.010605
}
set optking {
  frozen_dihedral = ("
    3 2 1 13
  ")
}
set {
  geom_maxiter 5
  g_convergence GAU_LOOSE
  dynamic_level 1
}
memory 700MB
set_num_threads(8)
psi4_io.set_default_path("/home/daniele/PSI4_sctatch/Psi4-aniline")
for _ in range(1):
  try:
    set opt_coordinates both
    optimize('wb97x-d/6-31G*')
    break
  except OptimizationConvergenceError:
    break
  else:
    try:
      set opt_coordinates cartesian
      optimize('wb97x-d/6-31G*')
      break
    except OptimizationConvergenceError:
      pass
clean()
--------------------------------------------------------------------------

    Molecular point group: c1
  Charge       = 0
  Multiplicity = 1
  Basis Set: 6-31G*
    Blend: 6-31G*
  Basis Set: (6-31G* AUX)
    Blend: CC-PVDZ-JKFIT
  @DF-RKS Final Energy:  -287.49165942840517
    Total Energy =                       -287.4916594284051712
    Molecular point group: c1
  Basis Set: 6-31G*
    Blend: 6-31G*
  Basis Set: (6-31G* AUX)
    Blend: CC-PVDZ-JKFIT
  Basis Set: 6-31G*
    Blend: 6-31G*
  Basis Set: (6-31G* AUX)
    Blend: CC-PVDZ-JKFIT
  @DF-RKS Final Energy:  -287.49334716309863
    Total Energy =                       -287.4933471630986332
  Basis Set: 6-31G*
    Blend: 6-31G*
  Basis Set: (6-31G* AUX)
    Blend: CC-PVDZ-JKFIT
  Basis Set: 6-31G*
    Blend: 6-31G*
  @DF-RKS Final Energy:  -287.49389248328174
    Total Energy =                       -287.4938924832817406
  Basis Set: (6-31G* AUX)
    Blend: CC-PVDZ-JKFIT
  Basis Set: 6-31G*
    Blend: 6-31G*
  Basis Set: (6-31G* AUX)
    Blend: CC-PVDZ-JKFIT
  @DF-RKS Final Energy:  -287.49392729923494
    Total Energy =                       -287.4939272992349970
  Basis Set: 6-31G*
    Blend: 6-31G*
  Basis Set: (6-31G* AUX)
    Blend: CC-PVDZ-JKFIT
  Charge       = 0
  Multiplicity = 1
  Basis Set: 6-31G*
    Blend: 6-31G*
  Basis Set: (6-31G* AUX)
    Blend: CC-PVDZ-JKFIT

    Orbital Energies [Eh]
    ---------------------

    Doubly Occupied:

       1A    -14.434867     2A    -10.326526     3A    -10.298992
       4A    -10.297247     5A    -10.296536     6A    -10.296202
       7A    -10.291037     8A     -0.996709     9A     -0.932114
      10A     -0.839052    11A     -0.817953    12A     -0.695485
      13A     -0.679949    14A     -0.604909    15A     -0.570396
      16A     -0.552425    17A     -0.533498    18A     -0.506745
      19A     -0.499267    20A     -0.444058    21A     -0.432618
      22A     -0.421809    23A     -0.329230    24A     -0.321909
      25A     -0.314227

  @DF-RKS Final Energy:  -287.49408633425827

   => Energetics <=

    Nuclear Repulsion Energy =            270.7554612361233808
    One-Electron Energy =                -923.4708859227284847
    Two-Electron Energy =                 394.0677037562014675
    DFT Exchange-Correlation Energy =     -28.8407089855637295
    Empirical Dispersion Energy =          -0.0056564182909801
    VV10 Nonlocal Energy =                  0.0000000000000000
    Total Energy =                       -287.4940863342582702

  Dipole Moment: [D]
     X:    -0.5197      Y:     1.2132      Z:     0.3008     Total:     1.3537

    Molecular point group: c1
  Basis Set: 6-31G*
    Blend: 6-31G*
  Basis Set: (6-31G* AUX)
    Blend: CC-PVDZ-JKFIT

  -Total Gradient:
     Atom            X                  Y                   Z
    ------   -----------------  -----------------  -----------------
       1       -0.001140197863     0.001245802221    -0.002632540479
       2        0.000326352269    -0.001009047015     0.000874282349
       3        0.000079528326     0.000183876835    -0.000711586351
       4       -0.000160702822     0.000153228811    -0.000073123298
       5        0.000044666765    -0.000186195699    -0.000002706031
       6       -0.000079890126    -0.000032223900    -0.000060085341
       7       -0.000079423881     0.000102790915    -0.000023788230
       8        0.000084037529    -0.000119995450    -0.000003495345
       9        0.000003641671     0.000078902383     0.000073063144
      10        0.000015733266    -0.000061010845    -0.000013906909
      11       -0.000052601729     0.000077133158    -0.000021700837
      12       -0.000092901813    -0.000060467436    -0.000044074038
      13        0.001032810505    -0.000665567512    -0.000851647433
      14       -0.000022968568     0.000322519245     0.003443772671

    Molecular point group: c1

    Geometry (in Angstrom), charge = 0, multiplicity = 1:

    N            2.050381826289     0.595830614899     1.030582524658
    C            0.797079508245     0.252666226848     0.412046009709
    C            0.630518254114    -1.047498687209    -0.061688403934
    C           -0.246045739426     1.169802487718     0.258011142426
    C           -0.561243059022    -1.429822809006    -0.672306374085
    C           -1.436282858552     0.790794091785    -0.355421001301
    C           -1.597262966005    -0.512071813486    -0.820822968746
    H            1.451741778329    -1.746759990072     0.058760751341
    H           -0.119662356099     2.186634330025     0.623074597515
    H           -0.679617763617    -2.446529824204    -1.035816983331
    H           -2.239594453943     1.513156550633    -0.469268511984
    H           -2.526012994227    -0.809204621040    -1.298889886849
    H            2.456731996869     1.405075180161     0.569516172545
    H            1.901688387974     0.860202050132     1.999979082441

*** Psi4 exiting successfully. Buy a developer a beer!
