                               Psi4 1.3.2 release

  ==> Input File <==

--------------------------------------------------------------------------
molecule {
0 1
 N    2.311436    0.392501    0.242403
 C    0.919365    0.142129    0.120452
 C    0.400459   -1.154558    0.026553
 C    0.040273    1.223381    0.028586
 C   -0.967856   -1.365049   -0.116151
 C   -1.327224    1.015262   -0.131787
 C   -1.836320   -0.279031   -0.199194
 H    1.082982   -1.999629    0.071141
 H    0.447234    2.227714    0.095088
 H   -1.354901   -2.378515   -0.176661
 H   -1.997436    1.867791   -0.198414
 H   -2.903688   -0.440889   -0.317885
 H    2.765224   -0.076537    1.011547
 H    2.842097    0.321979   -0.619664
}
set optking {
  frozen_dihedral = ("
    3 2 1 13
  ")
}
set {
  geom_maxiter 5
  g_convergence GAU_LOOSE
  dynamic_level 1
}
memory 700MB
set_num_threads(8)
psi4_io.set_default_path("/home/daniele/PSI4_sctatch/Psi4-aniline")
for _ in range(1):
  try:
    set opt_coordinates both
    optimize('wb97x-d/6-31G*')
    break
  except OptimizationConvergenceError:
    break
  else:
    try:
      set opt_coordinates cartesian
      optimize('wb97x-d/6-31G*')
      break
    except OptimizationConvergenceError:
      pass
clean()
--------------------------------------------------------------------------

    Molecular point group: c1
  Charge       = 0
  Multiplicity = 1
  Basis Set: 6-31G*
    Blend: 6-31G*
  Basis Set: (6-31G* AUX)
    Blend: CC-PVDZ-JKFIT
  @DF-RKS Final Energy:  -287.49272946083738
    Total Energy =                       -287.4927294608373813
    Molecular point group: c1
  Basis Set: 6-31G*
    Blend: 6-31G*
  Basis Set: (6-31G* AUX)
    Blend: CC-PVDZ-JKFIT
  Basis Set: 6-31G*
    Blend: 6-31G*
  Basis Set: (6-31G* AUX)
    Blend: CC-PVDZ-JKFIT
  @DF-RKS Final Energy:  -287.49349824689847
    Total Energy =                       -287.4934982468984117
  Basis Set: 6-31G*
    Blend: 6-31G*
  Basis Set: (6-31G* AUX)
    Blend: CC-PVDZ-JKFIT
  Basis Set: 6-31G*
    Blend: 6-31G*
  @DF-RKS Final Energy:  -287.49349828699758
    Total Energy =                       -287.4934982869975784
  Basis Set: (6-31G* AUX)
    Blend: CC-PVDZ-JKFIT
  Basis Set: 6-31G*
    Blend: 6-31G*
  Basis Set: (6-31G* AUX)
    Blend: CC-PVDZ-JKFIT
  @DF-RKS Final Energy:  -287.49392384885618
    Total Energy =                       -287.4939238488562410
  Basis Set: 6-31G*
    Blend: 6-31G*
  Basis Set: (6-31G* AUX)
    Blend: CC-PVDZ-JKFIT
  Charge       = 0
  Multiplicity = 1
  Basis Set: 6-31G*
    Blend: 6-31G*
  Basis Set: (6-31G* AUX)
    Blend: CC-PVDZ-JKFIT

    Orbital Energies [Eh]
    ---------------------

    Doubly Occupied:

       1A    -14.436665     2A    -10.326756     3A    -10.299471
       4A    -10.297584     5A    -10.296830     6A    -10.296773
       7A    -10.291297     8A     -0.998063     9A     -0.932810
      10A     -0.839611    11A     -0.818358    12A     -0.696187
      13A     -0.679927    14A     -0.604962    15A     -0.568265
      16A     -0.552451    17A     -0.534103    18A     -0.506449
      19A     -0.499810    20A     -0.444251    21A     -0.433010
      22A     -0.422169    23A     -0.331876    24A     -0.322411
      25A     -0.315349

  @DF-RKS Final Energy:  -287.49404087484464

   => Energetics <=

    Nuclear Repulsion Energy =            270.7849638765323448
    One-Electron Energy =                -923.5072228913184063
    Two-Electron Energy =                 394.0733517932581549
    DFT Exchange-Correlation Energy =     -28.8394707994974908
    Empirical Dispersion Energy =          -0.0056628538192943
    VV10 Nonlocal Energy =                  0.0000000000000000
    Total Energy =                       -287.4940408748446430

  Dipole Moment: [D]
     X:     0.1835      Y:    -1.3962      Z:    -0.1112     Total:     1.4126

    Molecular point group: c1
  Basis Set: 6-31G*
    Blend: 6-31G*
  Basis Set: (6-31G* AUX)
    Blend: CC-PVDZ-JKFIT

  -Total Gradient:
     Atom            X                  Y                   Z
    ------   -----------------  -----------------  -----------------
       1       -0.002671570767     0.003552777293     0.003800273626
       2        0.000569172643    -0.000357970496     0.000902456637
       3       -0.000191676724     0.000046619036    -0.000580024468
       4       -0.000140867231    -0.000051659690    -0.000062647619
       5        0.000053204092    -0.000107679341    -0.000002141269
       6        0.000004518388     0.000056407957    -0.000109455629
       7        0.000051477035     0.000027115288     0.000071101092
       8        0.000042854863     0.000008061404     0.000028858043
       9        0.000064628055    -0.000018866524     0.000006616496
      10       -0.000014921617     0.000009773818    -0.000004206421
      11       -0.000018322692     0.000022684292     0.000008407048
      12       -0.000023753197     0.000010528719    -0.000015790698
      13       -0.000071598888    -0.000426982703     0.000193775381
      14        0.002275669794    -0.002799393224    -0.004225888618

    Molecular point group: c1

    Geometry (in Angstrom), charge = 0, multiplicity = 1:

    N            2.318604430405     0.433497148976     0.235462713603
    C            0.915404134776     0.150167828730     0.096205086368
    C            0.411948260657    -1.151122624395     0.013308996047
    C            0.027790613301     1.223232108349     0.034074879338
    C           -0.954673115497    -1.374047411405    -0.123840026904
    C           -1.339781822816     1.002488406739    -0.107420453366
    C           -1.834535704508    -0.296162067111    -0.185931996508
    H            1.100590244571    -1.991960852597     0.058407921432
    H            0.432089231721     2.228262748943     0.100808286557
    H           -1.333040726778    -2.390478144487    -0.185089129346
    H           -2.020852323237     1.847318521835    -0.154651341371
    H           -2.901198369195    -0.468786413199    -0.294596388990
    H            2.702892629652    -0.051355417190     1.041390727210
    H            2.831745797940     0.107660856517    -0.580121312684

*** Psi4 exiting successfully. Buy a developer a beer!
