                               Psi4 1.3.2 release

  ==> Input File <==

--------------------------------------------------------------------------
molecule {
0 1
 N    2.290815    0.441799    0.283430
 C    0.914903    0.162081    0.134838
 C    0.425228   -1.146880    0.066940
 C    0.017533    1.224440   -0.006077
 C   -0.937706   -1.385384   -0.083559
 C   -1.339855    0.981568   -0.189874
 C   -1.826578   -0.322899   -0.219908
 H    1.118636   -1.981121    0.141285
 H    0.395255    2.241218    0.047267
 H   -1.302490   -2.408033   -0.116558
 H   -2.023558    1.819034   -0.295194
 H   -2.888030   -0.509238   -0.350472
 H    2.821193   -0.297584    0.722588
 H    2.751436    0.796730   -0.543046
}
set optking {
  frozen_dihedral = ("
    3 2 1 13
  ")
}
set {
  geom_maxiter 5
  g_convergence GAU_LOOSE
  dynamic_level 1
}
memory 700MB
set_num_threads(8)
psi4_io.set_default_path("/home/daniele/PSI4_sctatch/Psi4-aniline")
for _ in range(1):
  try:
    set opt_coordinates both
    optimize('wb97x-d/6-31G*')
    break
  except OptimizationConvergenceError:
    break
  else:
    try:
      set opt_coordinates cartesian
      optimize('wb97x-d/6-31G*')
      break
    except OptimizationConvergenceError:
      pass
clean()
--------------------------------------------------------------------------

    Molecular point group: c1
  Charge       = 0
  Multiplicity = 1
  Basis Set: 6-31G*
    Blend: 6-31G*
  Basis Set: (6-31G* AUX)
    Blend: CC-PVDZ-JKFIT
  @DF-RKS Final Energy:  -287.49711809850265
    Total Energy =                       -287.4971180985026535
    Molecular point group: c1
  Basis Set: 6-31G*
    Blend: 6-31G*
  Basis Set: (6-31G* AUX)
    Blend: CC-PVDZ-JKFIT
  Charge       = 0
  Multiplicity = 1
  Basis Set: 6-31G*
    Blend: 6-31G*
  Basis Set: (6-31G* AUX)
    Blend: CC-PVDZ-JKFIT

    Orbital Energies [Eh]
    ---------------------

    Doubly Occupied:

       1A    -14.440424     2A    -10.329617     3A    -10.295623
       4A    -10.294659     5A    -10.291681     6A    -10.289932
       7A    -10.288260     8A     -1.002972     9A     -0.930012
      10A     -0.836338    11A     -0.816003    12A     -0.695181
      13A     -0.680968    14A     -0.605743    15A     -0.585337
      16A     -0.555105    17A     -0.522837    18A     -0.507256
      19A     -0.496615    20A     -0.447860    21A     -0.431221
      22A     -0.418237    23A     -0.360095    24A     -0.319158
      25A     -0.284551

  @DF-RKS Final Energy:  -287.49712978896787

   => Energetics <=

    Nuclear Repulsion Energy =            271.2652761454693291
    One-Electron Energy =                -924.5077681723207661
    Two-Electron Energy =                 394.5999444727603418
    DFT Exchange-Correlation Energy =     -28.8489221282241672
    Empirical Dispersion Energy =          -0.0056601066526029
    VV10 Nonlocal Energy =                  0.0000000000000000
    Total Energy =                       -287.4971297889678681

  Dipole Moment: [D]
     X:     0.8966      Y:    -0.6667      Z:    -0.7539     Total:     1.3478

    Molecular point group: c1
  Basis Set: 6-31G*
    Blend: 6-31G*
  Basis Set: (6-31G* AUX)
    Blend: CC-PVDZ-JKFIT

  -Total Gradient:
     Atom            X                  Y                   Z
    ------   -----------------  -----------------  -----------------
       1        0.001010566181    -0.003421771869    -0.009064039062
       2       -0.000593404983     0.001067274581     0.007919113265
       3        0.000392903198    -0.000111880083    -0.004322388170
       4        0.000384270002    -0.000097304458     0.000191263586
       5        0.000156124468    -0.000041869276     0.000084454257
       6       -0.000180051613    -0.000163083831    -0.000000670859
       7       -0.000038623931     0.000190624349    -0.000043742534
       8       -0.000040844451    -0.000007863810     0.000008483067
       9       -0.000113208049     0.000043399612    -0.000019878163
      10        0.000011605241    -0.000002893407    -0.000007916677
      11        0.000045527001     0.000038891803    -0.000007864943
      12       -0.000001087240     0.000010420461     0.000009644756
      13       -0.000962407515     0.002392726504     0.005152320255
      14        0.000012561377     0.000110607509     0.000124250873

  **** Optimization is complete! (in 2 steps) ****
    Final optimized geometry and variables:
    Molecular point group: c1

    Geometry (in Angstrom), charge = 0, multiplicity = 1:

    N            2.290795381072     0.442906481350     0.284247694343
    C            0.915264170361     0.161912492995     0.130737293710
    C            0.425518222867    -1.146833995958     0.065883106961
    C            0.016610607116     1.224344576287    -0.005160297893
    C           -0.937224212685    -1.385578758478    -0.083169073487
    C           -1.340093910521     0.981622441610    -0.188675254624
    C           -1.826315914748    -0.323349354791    -0.219350875878
    H            1.120039360594    -1.980274158862     0.141835383171
    H            0.396654862193     2.240302009910     0.049355792095
    H           -1.301838276727    -2.408476822499    -0.115129381061
    H           -2.024449139538     1.818950852432    -0.292359577705
    H           -2.887947605296    -0.510177199859    -0.348681471613
    H            2.816248534527    -0.296790064388     0.729070887120
    H            2.751200406166     0.791702111618    -0.544634159411

*** Psi4 exiting successfully. Buy a developer a beer!
