                               Psi4 1.3.2 release

  ==> Input File <==

--------------------------------------------------------------------------
molecule {
0 1
 N    2.088108   -0.385073    0.975438
 C    0.828459   -0.156474    0.422904
 C    0.117617   -1.209174   -0.169354
 C    0.284110    1.132553    0.373123
 C   -1.113141   -0.976726   -0.769817
 C   -0.940657    1.357466   -0.246168
 C   -1.652631    0.306858   -0.816609
 H    0.540983   -2.210443   -0.158839
 H    0.825900    1.961685    0.822710
 H   -1.650251   -1.809002   -1.216284
 H   -1.342947    2.366370   -0.272999
 H   -2.611475    0.484817   -1.293276
 H    2.503734    0.401477    1.451801
 H    2.205342   -1.256253    1.472524
}
memory 700MB
set_num_threads(8)
psi4_io.set_default_path("/home/daniele/PSI4_sctatch/Psi4-aniline")
set freeze_core True
E, wfn = energy('wb97x-d/6-311+G*',return_wfn=True)
oeprop(wfn,"WIBERG_LOWDIN_INDICES")
clean()
--------------------------------------------------------------------------

    Molecular point group: c1

    Geometry (in Angstrom), charge = 0, multiplicity = 1:

       Center              X                  Y                   Z               Mass
    ------------   -----------------  -----------------  -----------------  -----------------
         N            2.088108121630    -0.385073013174     0.975437788989    14.003074004430
         C            0.828459121630    -0.156474013174     0.422903788989    12.000000000000
         C            0.117617121630    -1.209174013174    -0.169354211011    12.000000000000
         C            0.284110121630     1.132552986826     0.373122788989    12.000000000000
         C           -1.113140878370    -0.976726013174    -0.769817211011    12.000000000000
         C           -0.940656878370     1.357465986826    -0.246168211011    12.000000000000
         C           -1.652630878370     0.306857986826    -0.816609211011    12.000000000000
         H            0.540983121630    -2.210443013174    -0.158839211011     1.007825032230
         H            0.825900121630     1.961684986826     0.822709788989     1.007825032230
         H           -1.650250878370    -1.809002013174    -1.216284211011     1.007825032230
         H           -1.342946878370     2.366369986826    -0.272999211011     1.007825032230
         H           -2.611474878370     0.484816986826    -1.293276211011     1.007825032230
         H            2.503734121630     0.401476986826     1.451800788989     1.007825032230
         H            2.205342121630    -1.256253013174     1.472523788989     1.007825032230

  Charge       = 0
  Multiplicity = 1
  Basis Set: 6-311+G*
    Blend: 6-311+G*
  Basis Set: (6-311+G* AUX)
    Blend: HEAVY-AUG-CC-PVTZ-JKFIT

    Orbital Energies [Eh]
    ---------------------

    Doubly Occupied:

       1A    -14.438012     2A    -10.328857     3A    -10.286100
       4A    -10.285862     5A    -10.280967     6A    -10.279963
       7A    -10.275528     8A     -1.024487     9A     -0.940452
      10A     -0.845120    11A     -0.825793    12A     -0.707631
      13A     -0.693249    14A     -0.618131    15A     -0.602651
      16A     -0.567438    17A     -0.521369    18A     -0.517156
      19A     -0.504931    20A     -0.471788    21A     -0.440612
      22A     -0.424020    23A     -0.395698    24A     -0.328080
      25A     -0.282694

  @DF-RKS Final Energy:  -287.56525985538087

   => Energetics <=

    Nuclear Repulsion Energy =            271.6500117918567412
    One-Electron Energy =                -925.0583923538323461
    Two-Electron Energy =                 394.7414197070800128
    DFT Exchange-Correlation Energy =     -28.8926372720807656
    Empirical Dispersion Energy =          -0.0056617284045176
    VV10 Nonlocal Energy =                  0.0000000000000000
    Total Energy =                       -287.5652598553808730

  Dipole Moment: [D]
     X:     0.6582      Y:    -0.1386      Z:     1.4133     Total:     1.5652

*** Psi4 exiting successfully. Buy a developer a beer!
