                               Psi4 1.3.2 release

  ==> Input File <==

--------------------------------------------------------------------------
molecule {
0 1
 N    2.315209    0.384627    0.173089
 C    0.929512    0.175825    0.043833
 C    0.421817   -1.102444   -0.286467
 C    0.025987    1.244547    0.241428
 C   -0.966813   -1.306472   -0.413772
 C   -1.362100    1.037329    0.114091
 C   -1.860970   -0.237936   -0.212818
 H    1.096188   -1.932944   -0.442269
 H    0.395971    2.228824    0.492162
 H   -1.349844   -2.307897   -0.670606
 H   -2.055897    1.879351    0.272011
 H   -2.947498   -0.398984   -0.310578
 H    2.922287    0.282528   -0.647911
 H    2.778281    0.164570    1.062189
}
set optking {
  frozen_dihedral = ("
    3 2 1 13
  ")
}
set {
  geom_maxiter 5
  g_convergence GAU_LOOSE
  dynamic_level 1
}
memory 700MB
set_num_threads(8)
psi4_io.set_default_path("/home/daniele/PSI4_sctatch/Psi4-aniline")
for _ in range(1):
  try:
    set opt_coordinates both
    optimize('wb97x-d/6-31G*')
    break
  except OptimizationConvergenceError:
    break
  else:
    try:
      set opt_coordinates cartesian
      optimize('wb97x-d/6-31G*')
      break
    except OptimizationConvergenceError:
      pass
clean()
--------------------------------------------------------------------------

    Molecular point group: c1
  Charge       = 0
  Multiplicity = 1
  Basis Set: 6-31G*
    Blend: 6-31G*
  Basis Set: (6-31G* AUX)
    Blend: CC-PVDZ-JKFIT
  @DF-RKS Final Energy:  -287.48682840827956
    Total Energy =                       -287.4868284082795640
    Molecular point group: c1
  Basis Set: 6-31G*
    Blend: 6-31G*
  Basis Set: (6-31G* AUX)
    Blend: CC-PVDZ-JKFIT
  Basis Set: 6-31G*
    Blend: 6-31G*
  Basis Set: (6-31G* AUX)
    Blend: CC-PVDZ-JKFIT
  @DF-RKS Final Energy:  -287.49103544765597
    Total Energy =                       -287.4910354476560315
  Basis Set: 6-31G*
    Blend: 6-31G*
  Basis Set: (6-31G* AUX)
    Blend: CC-PVDZ-JKFIT
  Basis Set: 6-31G*
    Blend: 6-31G*
  @DF-RKS Final Energy:  -287.49103542469487
    Total Energy =                       -287.4910354246949282
  Basis Set: (6-31G* AUX)
    Blend: CC-PVDZ-JKFIT
  Basis Set: 6-31G*
    Blend: 6-31G*
  Basis Set: (6-31G* AUX)
    Blend: CC-PVDZ-JKFIT
  @DF-RKS Final Energy:  -287.49230502221604
    Total Energy =                       -287.4923050222160441
  Basis Set: 6-31G*
    Blend: 6-31G*
  Basis Set: (6-31G* AUX)
    Blend: CC-PVDZ-JKFIT
  Charge       = 0
  Multiplicity = 1
  Basis Set: 6-31G*
    Blend: 6-31G*
  Basis Set: (6-31G* AUX)
    Blend: CC-PVDZ-JKFIT

    Orbital Energies [Eh]
    ---------------------

    Doubly Occupied:

       1A    -14.432622     2A    -10.325884     3A    -10.298518
       4A    -10.297034     5A    -10.296468     6A    -10.295303
       7A    -10.290647     8A     -0.994371     9A     -0.930441
      10A     -0.838035    11A     -0.816551    12A     -0.694184
      13A     -0.679493    14A     -0.604222    15A     -0.574134
      16A     -0.552109    17A     -0.532666    18A     -0.506535
      19A     -0.498411    20A     -0.443245    21A     -0.432063
      22A     -0.420980    23A     -0.322506    24A     -0.320783
      25A     -0.314840

  @DF-RKS Final Energy:  -287.49336634328159

   => Energetics <=

    Nuclear Repulsion Energy =            270.6174256411244414
    One-Electron Energy =                -923.2382717769041847
    Two-Electron Energy =                 393.9718129047319621
    DFT Exchange-Correlation Energy =     -28.8386828062036145
    Empirical Dispersion Energy =          -0.0056503060301806
    VV10 Nonlocal Energy =                  0.0000000000000000
    Total Energy =                       -287.4933663432815933

  Dipole Moment: [D]
     X:     0.3431      Y:    -1.1789      Z:    -0.2358     Total:     1.2503

    Molecular point group: c1
  Basis Set: 6-31G*
    Blend: 6-31G*
  Basis Set: (6-31G* AUX)
    Blend: CC-PVDZ-JKFIT

  -Total Gradient:
     Atom            X                  Y                   Z
    ------   -----------------  -----------------  -----------------
       1       -0.001384293794    -0.005344561156    -0.005670455334
       2        0.003156946434     0.003102707870    -0.003859409428
       3       -0.001000187767    -0.001270480446     0.001317757725
       4       -0.000814423329     0.000328534965     0.001930774930
       5        0.000487934830    -0.001367584459    -0.000534769581
       6       -0.000423884145     0.001133161951     0.000420407711
       7       -0.000978662108     0.000072805546     0.000009894618
       8        0.000436812011     0.000055389543     0.000196321190
       9        0.000282667650     0.000103183920    -0.000172467305
      10       -0.000032316384    -0.000298232975    -0.000091399211
      11       -0.000194246635     0.000337673856     0.000075645647
      12       -0.000321036201    -0.000002420575    -0.000033284673
      13       -0.000438602402     0.003794322344    -0.001258587105
      14        0.001169400110    -0.000672445607     0.007660297791

    Molecular point group: c1

    Geometry (in Angstrom), charge = 0, multiplicity = 1:

    N            2.316020808493     0.426852097854     0.260012152608
    C            0.919831250544     0.153403680080     0.082152250439
    C            0.432882507094    -1.123850701087    -0.222006811628
    C            0.008766743911     1.198148845223     0.262579257785
    C           -0.934975098529    -1.349088500011    -0.356918325563
    C           -1.361123627449     0.978547545821     0.124881320199
    C           -1.836107388170    -0.296093400224    -0.184248268830
    H            1.141102421907    -1.939791265470    -0.352030681384
    H            0.403069486771     2.179694093877     0.507366833113
    H           -1.298196120774    -2.345612797589    -0.595240223913
    H           -2.058127367704     1.800949470157     0.266416458008
    H           -2.903892962687    -0.469631336536    -0.289348683712
    H            2.819189591611     0.281219633051    -0.607949600161
    H            2.707805808334    -0.211365916814     0.953461481530

*** Psi4 exiting successfully. Buy a developer a beer!
