                               Psi4 1.3.2 release

  ==> Input File <==

--------------------------------------------------------------------------
molecule {
0 1
 N    2.319219    0.440529    0.233168
 C    0.914572    0.152221    0.096660
 C    0.414488   -1.149966    0.011991
 C    0.025211    1.223529    0.035765
 C   -0.951565   -1.375784   -0.125394
 C   -1.342029    1.000095   -0.105283
 C   -1.833804   -0.299618   -0.184917
 H    1.104899   -1.989552    0.056025
 H    0.428451    2.228996    0.101859
 H   -1.327678   -2.392928   -0.188207
 H   -2.025109    1.843398   -0.151251
 H   -2.900099   -0.474509   -0.293762
 H    2.692180   -0.052290    1.041428
 H    2.822447    0.068418   -0.576921
}
memory 700MB
set_num_threads(8)
psi4_io.set_default_path("/home/daniele/PSI4_sctatch/Psi4-aniline")
set freeze_core True
E, wfn = energy('wb97x-d/6-311+G*',return_wfn=True)
oeprop(wfn,"WIBERG_LOWDIN_INDICES")
clean()
--------------------------------------------------------------------------

    Molecular point group: c1

    Geometry (in Angstrom), charge = 0, multiplicity = 1:

       Center              X                  Y                   Z               Mass
    ------------   -----------------  -----------------  -----------------  -----------------
         N            2.319219172987     0.440528957993     0.233167795587    14.003074004430
         C            0.914572172987     0.152220957993     0.096659795587    12.000000000000
         C            0.414488172987    -1.149966042007     0.011990795587    12.000000000000
         C            0.025211172987     1.223528957993     0.035764795587    12.000000000000
         C           -0.951564827013    -1.375784042007    -0.125394204413    12.000000000000
         C           -1.342028827013     1.000094957993    -0.105283204413    12.000000000000
         C           -1.833803827013    -0.299618042007    -0.184917204413    12.000000000000
         H            1.104899172987    -1.989552042007     0.056024795587     1.007825032230
         H            0.428451172987     2.228995957993     0.101858795587     1.007825032230
         H           -1.327677827013    -2.392928042007    -0.188207204413     1.007825032230
         H           -2.025108827013     1.843397957993    -0.151251204413     1.007825032230
         H           -2.900098827013    -0.474509042007    -0.293762204413     1.007825032230
         H            2.692180172987    -0.052290042007     1.041427795587     1.007825032230
         H            2.822447172987     0.068417957993    -0.576921204413     1.007825032230

  Charge       = 0
  Multiplicity = 1
  Basis Set: 6-311+G*
    Blend: 6-311+G*
  Basis Set: (6-311+G* AUX)
    Blend: HEAVY-AUG-CC-PVTZ-JKFIT

    Orbital Energies [Eh]
    ---------------------

    Doubly Occupied:

       1A    -14.423922     2A    -10.321211     3A    -10.292145
       4A    -10.290220     5A    -10.289841     6A    -10.289183
       7A    -10.284345     8A     -1.009512     9A     -0.944275
      10A     -0.849901    11A     -0.828903    12A     -0.706173
      13A     -0.690077    14A     -0.615491    15A     -0.578812
      16A     -0.562114    17A     -0.545910    18A     -0.517450
      19A     -0.510098    20A     -0.455036    21A     -0.443673
      22A     -0.432422    23A     -0.345072    24A     -0.333066
      25A     -0.326227

  @DF-RKS Final Energy:  -287.55773799342171

   => Energetics <=

    Nuclear Repulsion Energy =            270.7849618483413110
    One-Electron Energy =                -923.3235601121861009
    Two-Electron Energy =                 393.8667189615874804
    DFT Exchange-Correlation Energy =     -28.8801958373275021
    Empirical Dispersion Energy =          -0.0056628538369644
    VV10 Nonlocal Energy =                  0.0000000000000000
    Total Energy =                       -287.5577379934217106

  Dipole Moment: [D]
     X:     0.0717      Y:    -1.4224      Z:    -0.1200     Total:     1.4293

*** Psi4 exiting successfully. Buy a developer a beer!
