                               Psi4 1.3.2 release

  ==> Input File <==

--------------------------------------------------------------------------
molecule {
0 1
 N    2.316883    0.415730    0.247563
 C    0.920425    0.150840    0.070743
 C    0.426327   -1.124028   -0.228505
 C    0.014363    1.195285    0.264822
 C   -0.941919   -1.343969   -0.358402
 C   -1.356242    0.978946    0.138941
 C   -1.837437   -0.290546   -0.175127
 H    1.129908   -1.943105   -0.361450
 H    0.410814    2.175601    0.510570
 H   -1.310168   -2.338145   -0.596919
 H   -2.049459    1.802235    0.289256
 H   -2.906077   -0.460328   -0.273246
 H    2.853732    0.274244   -0.600050
 H    2.714938   -0.125525    1.015649
}
memory 700MB
set_num_threads(8)
psi4_io.set_default_path("/home/daniele/PSI4_sctatch/Psi4-aniline")
set freeze_core True
E, wfn = energy('wb97x-d/6-311+G*',return_wfn=True)
oeprop(wfn,"WIBERG_LOWDIN_INDICES")
clean()
--------------------------------------------------------------------------

    Molecular point group: c1

    Geometry (in Angstrom), charge = 0, multiplicity = 1:

       Center              X                  Y                   Z               Mass
    ------------   -----------------  -----------------  -----------------  -----------------
         N            2.316883236472     0.415730017397     0.247563103995    14.003074004430
         C            0.920425236472     0.150840017397     0.070743103995    12.000000000000
         C            0.426327236472    -1.124027982603    -0.228504896005    12.000000000000
         C            0.014363236472     1.195285017397     0.264822103995    12.000000000000
         C           -0.941918763528    -1.343968982603    -0.358401896005    12.000000000000
         C           -1.356241763528     0.978946017397     0.138941103995    12.000000000000
         C           -1.837436763528    -0.290545982603    -0.175126896005    12.000000000000
         H            1.129908236472    -1.943104982603    -0.361449896005     1.007825032230
         H            0.410814236472     2.175601017397     0.510570103995     1.007825032230
         H           -1.310167763528    -2.338144982603    -0.596918896005     1.007825032230
         H           -2.049458763528     1.802235017397     0.289256103995     1.007825032230
         H           -2.906076763528    -0.460327982603    -0.273245896005     1.007825032230
         H            2.853732236472     0.274244017397    -0.600049896005     1.007825032230
         H            2.714938236472    -0.125524982603     1.015649103995     1.007825032230

  Charge       = 0
  Multiplicity = 1
  Basis Set: 6-311+G*
    Blend: 6-311+G*
  Basis Set: (6-311+G* AUX)
    Blend: HEAVY-AUG-CC-PVTZ-JKFIT

    Orbital Energies [Eh]
    ---------------------

    Doubly Occupied:

       1A    -14.420383     2A    -10.320752     3A    -10.291462
       4A    -10.289889     5A    -10.289219     6A    -10.288668
       7A    -10.284069     8A     -1.006474     9A     -0.942272
      10A     -0.848609    11A     -0.827443    12A     -0.704464
      13A     -0.689985    14A     -0.615120    15A     -0.585289
      16A     -0.561952    17A     -0.545096    18A     -0.517764
      19A     -0.508962    20A     -0.454319    21A     -0.443044
      22A     -0.431485    23A     -0.336343    24A     -0.331926
      25A     -0.326026

  @DF-RKS Final Energy:  -287.55745795344308

   => Energetics <=

    Nuclear Repulsion Energy =            270.6174411638090191
    One-Electron Energy =                -923.0374042425786456
    Two-Electron Energy =                 393.7465537341387858
    DFT Exchange-Correlation Energy =     -28.8783983024093729
    Empirical Dispersion Energy =          -0.0056503064028925
    VV10 Nonlocal Energy =                  0.0000000000000000
    Total Energy =                       -287.5574579534430768

  Dipole Moment: [D]
     X:     0.2030      Y:    -1.2012      Z:    -0.2393     Total:     1.2415

*** Psi4 exiting successfully. Buy a developer a beer!
