                               Psi4 1.3.2 release

  ==> Input File <==

--------------------------------------------------------------------------
molecule {
0 1
 N    2.317039    0.392175    0.191127
 C    0.921336    0.138272    0.091935
 C    0.400224   -1.156474   -0.014060
 C    0.041403    1.221037    0.054248
 C   -0.969430   -1.363547   -0.144381
 C   -1.330535    1.015520   -0.061224
 C   -1.839548   -0.276361   -0.162875
 H    1.084236   -2.001403    0.006857
 H    0.455651    2.222394    0.118197
 H   -1.359041   -2.374330   -0.226048
 H   -2.003507    1.867838   -0.084037
 H   -2.909468   -0.435580   -0.260391
 H    2.716928    0.343193    1.116451
 H    2.881350   -0.051777   -0.512370
}
memory 700MB
set_num_threads(8)
psi4_io.set_default_path("/home/daniele/PSI4_sctatch/Psi4-aniline")
set freeze_core True
E, wfn = energy('wb97x-d/6-311+G*',return_wfn=True)
oeprop(wfn,"WIBERG_LOWDIN_INDICES")
clean()
--------------------------------------------------------------------------

    Molecular point group: c1

    Geometry (in Angstrom), charge = 0, multiplicity = 1:

       Center              X                  Y                   Z               Mass
    ------------   -----------------  -----------------  -----------------  -----------------
         N            2.317039051237     0.392175081614     0.191127193030    14.003074004430
         C            0.921336051237     0.138272081614     0.091935193030    12.000000000000
         C            0.400224051237    -1.156473918386    -0.014059806970    12.000000000000
         C            0.041403051237     1.221037081614     0.054248193030    12.000000000000
         C           -0.969429948763    -1.363546918386    -0.144380806970    12.000000000000
         C           -1.330534948763     1.015520081614    -0.061223806970    12.000000000000
         C           -1.839547948763    -0.276360918386    -0.162874806970    12.000000000000
         H            1.084236051237    -2.001402918386     0.006857193030     1.007825032230
         H            0.455651051237     2.222394081614     0.118197193030     1.007825032230
         H           -1.359040948763    -2.374329918386    -0.226047806970     1.007825032230
         H           -2.003506948763     1.867838081614    -0.084036806970     1.007825032230
         H           -2.909467948763    -0.435579918386    -0.260390806970     1.007825032230
         H            2.716928051237     0.343193081614     1.116451193030     1.007825032230
         H            2.881350051237    -0.051776918386    -0.512369806970     1.007825032230

  Charge       = 0
  Multiplicity = 1
  Basis Set: 6-311+G*
    Blend: 6-311+G*
  Basis Set: (6-311+G* AUX)
    Blend: HEAVY-AUG-CC-PVTZ-JKFIT

    Orbital Energies [Eh]
    ---------------------

    Doubly Occupied:

       1A    -14.417529     2A    -10.320761     3A    -10.289619
       4A    -10.288280     5A    -10.287178     6A    -10.286487
       7A    -10.282657     8A     -1.006271     9A     -0.941627
      10A     -0.847504    11A     -0.827152    12A     -0.703532
      13A     -0.690782    14A     -0.616077    15A     -0.592362
      16A     -0.562671    17A     -0.543151    18A     -0.518592
      19A     -0.507730    20A     -0.454757    21A     -0.442306
      22A     -0.430341    23A     -0.343922    24A     -0.330822
      25A     -0.312823

  @DF-RKS Final Energy:  -287.55709801980180

   => Energetics <=

    Nuclear Repulsion Energy =            270.9339631434401667
    One-Electron Energy =                -923.6953481080936399
    Two-Electron Energy =                 394.0985156069748996
    DFT Exchange-Correlation Energy =     -28.8885901683907065
    Empirical Dispersion Energy =          -0.0056384937325690
    VV10 Nonlocal Energy =                  0.0000000000000000
    Total Energy =                       -287.5570980198017992

  Dipole Moment: [D]
     X:     0.3712      Y:    -0.9292      Z:     0.2679     Total:     1.0358

*** Psi4 exiting successfully. Buy a developer a beer!
