                               Psi4 1.3.2 release

  ==> Input File <==

--------------------------------------------------------------------------
molecule {
0 1
 N    1.763274   -0.316118    1.472603
 C    0.724669   -0.103885    0.560781
 C    0.193171   -1.181515   -0.101414
 C    0.140489    1.129965    0.376567
 C   -0.845723   -1.017738   -0.968694
 C   -0.907087    1.292441   -0.478442
 C   -1.412093    0.216196   -1.161028
 H    0.652313   -2.145818    0.088302
 H    0.558997    1.969181    0.927914
 H   -1.263033   -1.867186   -1.503014
 H   -1.369675    2.262642   -0.631600
 H   -2.242080    0.347036   -1.842697
 H    1.566993   -0.112713    2.426174
 H    2.679542   -0.055184    1.175686
}
set optking {
  frozen_dihedral = ("
    3 2 1 13
  ")
}
set {
  geom_maxiter 5
  g_convergence GAU_LOOSE
  dynamic_level 1
}
memory 700MB
set_num_threads(8)
psi4_io.set_default_path("/home/daniele/PSI4_sctatch/Psi4-aniline")
for _ in range(1):
  try:
    set opt_coordinates both
    optimize('wb97x-d/6-31G*')
    break
  except OptimizationConvergenceError:
    break
  else:
    try:
      set opt_coordinates cartesian
      optimize('wb97x-d/6-31G*')
      break
    except OptimizationConvergenceError:
      pass
clean()
--------------------------------------------------------------------------

    Molecular point group: c1
  Charge       = 0
  Multiplicity = 1
  Basis Set: 6-31G*
    Blend: 6-31G*
  Basis Set: (6-31G* AUX)
    Blend: CC-PVDZ-JKFIT
  @DF-RKS Final Energy:  -287.48617823111749
    Total Energy =                       -287.4861782311174920
    Molecular point group: c1
  Basis Set: 6-31G*
    Blend: 6-31G*
  Basis Set: (6-31G* AUX)
    Blend: CC-PVDZ-JKFIT
  Basis Set: 6-31G*
    Blend: 6-31G*
  Basis Set: (6-31G* AUX)
    Blend: CC-PVDZ-JKFIT
  @DF-RKS Final Energy:  -287.49182348276872
    Total Energy =                       -287.4918234827687797
  Basis Set: 6-31G*
    Blend: 6-31G*
  Basis Set: (6-31G* AUX)
    Blend: CC-PVDZ-JKFIT
  Basis Set: 6-31G*
    Blend: 6-31G*
  @DF-RKS Final Energy:  -287.49322901204755
    Total Energy =                       -287.4932290120475500
  Basis Set: (6-31G* AUX)
    Blend: CC-PVDZ-JKFIT
  Basis Set: 6-31G*
    Blend: 6-31G*
  Basis Set: (6-31G* AUX)
    Blend: CC-PVDZ-JKFIT
  @DF-RKS Final Energy:  -287.49180966772383
    Total Energy =                       -287.4918096677238282
  Basis Set: 6-31G*
    Blend: 6-31G*
  Basis Set: (6-31G* AUX)
    Blend: CC-PVDZ-JKFIT
  Charge       = 0
  Multiplicity = 1
  Basis Set: 6-31G*
    Blend: 6-31G*
  Basis Set: (6-31G* AUX)
    Blend: CC-PVDZ-JKFIT

    Orbital Energies [Eh]
    ---------------------

    Doubly Occupied:

       1A    -14.435563     2A    -10.327202     3A    -10.299796
       4A    -10.297864     5A    -10.297088     6A    -10.297014
       7A    -10.291679     8A     -1.000138     9A     -0.932553
      10A     -0.839038    11A     -0.818225    12A     -0.696063
      13A     -0.680137    14A     -0.604948    15A     -0.570413
      16A     -0.553389    17A     -0.533437    18A     -0.506913
      19A     -0.499596    20A     -0.443698    21A     -0.432801
      22A     -0.422650    23A     -0.334215    24A     -0.321922
      25A     -0.313171

  @DF-RKS Final Energy:  -287.49412975998138

   => Energetics <=

    Nuclear Repulsion Energy =            270.6926552749155803
    One-Electron Energy =                -923.3136621858176341
    Two-Electron Energy =                 393.9732589766509818
    DFT Exchange-Correlation Energy =     -28.8407192078445007
    Empirical Dispersion Energy =          -0.0056626178858811
    VV10 Nonlocal Energy =                  0.0000000000000000
    Total Energy =                       -287.4941297599813765

  Dipole Moment: [D]
     X:    -0.1602      Y:     1.3372      Z:     0.4278     Total:     1.4131

    Molecular point group: c1
  Basis Set: 6-31G*
    Blend: 6-31G*
  Basis Set: (6-31G* AUX)
    Blend: CC-PVDZ-JKFIT

  -Total Gradient:
     Atom            X                  Y                   Z
    ------   -----------------  -----------------  -----------------
       1        0.001020082278     0.001279028951    -0.001939395191
       2        0.002994862272    -0.000769362639     0.004053767173
       3        0.001653262597    -0.001298416371    -0.000236195241
       4        0.001064329686     0.001820785113     0.001542891158
       5       -0.001697288352    -0.001525440121    -0.001628429795
       6       -0.001801576745     0.001657140672    -0.000977779266
       7       -0.000319675203     0.000280470655    -0.000304930265
       8       -0.000326859239    -0.000188109452    -0.000092083735
       9       -0.000089074092    -0.000257548889    -0.000293093789
      10        0.000352284746    -0.000001779117     0.000224915055
      11        0.000246534433    -0.000014230753     0.000245993401
      12       -0.000201833256    -0.000081164680    -0.000141924717
      13        0.000390260521     0.001653809776    -0.002116892584
      14       -0.003296177977    -0.002539633962     0.001578942676

    Molecular point group: c1

    Geometry (in Angstrom), charge = 0, multiplicity = 1:

    N            1.830616198376    -0.365242562173     1.462470114316
    C            0.714341649915    -0.124425420714     0.586358204150
    C            0.174468031013    -1.206407950884    -0.105781911649
    C            0.172263532433     1.147448621969     0.383665829208
    C           -0.900498619187    -1.026227113935    -0.972494005765
    C           -0.897010980430     1.330843250761    -0.487797938865
    C           -1.438581174492     0.242297172375    -1.165822139068
    H            0.613194707401    -2.186870866567     0.049207048906
    H            0.594385489190     1.997828361257     0.914619809026
    H           -1.313141213084    -1.879058841377    -1.503341628771
    H           -1.308069969715     2.325272875608    -0.635306118236
    H           -2.274301734555     0.383544796286    -1.844791175656
    H            1.565625390040    -0.178899822107     2.426946369912
    H            2.584646144017     0.284519307931     1.250901283953

*** Psi4 exiting successfully. Buy a developer a beer!
