                               Psi4 1.3.2 release

  ==> Input File <==

--------------------------------------------------------------------------
molecule {
0 1
 N    2.330719    0.364452    0.085784
 C    0.938481    0.159484   -0.007508
 C    0.415878   -1.098381   -0.395456
 C    0.039444    1.214569    0.278472
 C   -0.976766   -1.295463   -0.487362
 C   -1.352196    1.013439    0.185333
 C   -1.862647   -0.241114   -0.196940
 H    1.079686   -1.921229   -0.623382
 H    0.413647    2.185993    0.571133
 H   -1.369725   -2.280878   -0.787896
 H   -2.040020    1.844618    0.412971
 H   -2.951822   -0.397155   -0.269317
 H    2.978344   -0.377914   -0.203202
 H    2.699104    0.940506    0.851751
}
set optking {
  frozen_dihedral = ("
    3 2 1 13
  ")
}
set {
  geom_maxiter 5
  g_convergence GAU_LOOSE
  dynamic_level 1
}
memory 700MB
set_num_threads(8)
psi4_io.set_default_path("/home/daniele/PSI4_sctatch/Psi4-aniline")
for _ in range(1):
  try:
    set opt_coordinates both
    optimize('wb97x-d/6-31G*')
    break
  except OptimizationConvergenceError:
    break
  else:
    try:
      set opt_coordinates cartesian
      optimize('wb97x-d/6-31G*')
      break
    except OptimizationConvergenceError:
      pass
clean()
--------------------------------------------------------------------------

    Molecular point group: c1
  Charge       = 0
  Multiplicity = 1
  Basis Set: 6-31G*
    Blend: 6-31G*
  Basis Set: (6-31G* AUX)
    Blend: CC-PVDZ-JKFIT
  @DF-RKS Final Energy:  -287.49671684230032
    Total Energy =                       -287.4967168423003159
    Molecular point group: c1
  Basis Set: 6-31G*
    Blend: 6-31G*
  Basis Set: (6-31G* AUX)
    Blend: CC-PVDZ-JKFIT
  Basis Set: 6-31G*
    Blend: 6-31G*
  Basis Set: (6-31G* AUX)
    Blend: CC-PVDZ-JKFIT
  @DF-RKS Final Energy:  -287.50028524494496
    Total Energy =                       -287.5002852449449620
  Basis Set: 6-31G*
    Blend: 6-31G*
  Basis Set: (6-31G* AUX)
    Blend: CC-PVDZ-JKFIT
  Charge       = 0
  Multiplicity = 1
  Basis Set: 6-31G*
    Blend: 6-31G*
  Basis Set: (6-31G* AUX)
    Blend: CC-PVDZ-JKFIT

    Orbital Energies [Eh]
    ---------------------

    Doubly Occupied:

       1A    -14.449258     2A    -10.334143     3A    -10.292636
       4A    -10.292335     5A    -10.287380     6A    -10.286011
       7A    -10.282553     8A     -1.010945     9A     -0.927947
      10A     -0.833858    11A     -0.814730    12A     -0.696366
      13A     -0.682915    14A     -0.607543    15A     -0.593914
      16A     -0.558033    17A     -0.511602    18A     -0.506777
      19A     -0.494019    20A     -0.456972    21A     -0.429631
      22A     -0.413689    23A     -0.379303    24A     -0.316582
      25A     -0.269822

  @DF-RKS Final Energy:  -287.50037296405515

   => Energetics <=

    Nuclear Repulsion Energy =            271.6351748165076287
    One-Electron Energy =                -925.2452785666411046
    Two-Electron Energy =                 394.9682622813714374
    DFT Exchange-Correlation Energy =     -28.8528674771005313
    Empirical Dispersion Energy =          -0.0056640181926067
    VV10 Nonlocal Energy =                  0.0000000000000000
    Total Energy =                       -287.5003729640551455

  Dipole Moment: [D]
     X:     1.3671      Y:    -0.2795      Z:     0.8369     Total:     1.6271

    Molecular point group: c1
  Basis Set: 6-31G*
    Blend: 6-31G*
  Basis Set: (6-31G* AUX)
    Blend: CC-PVDZ-JKFIT

  -Total Gradient:
     Atom            X                  Y                   Z
    ------   -----------------  -----------------  -----------------
       1       -0.000060283361    -0.002772370327     0.007358532252
       2       -0.000438774411     0.002132197516    -0.006148884528
       3        0.000216840326    -0.001058370347     0.003127783722
       4        0.000841187470    -0.000004835576     0.000098913156
       5       -0.000111457033    -0.000178534602    -0.000070590144
       6       -0.000584312512    -0.000185871396    -0.000127214926
       7       -0.000054113831     0.000249976599     0.000047931057
       8       -0.000079049703    -0.000009876747     0.000018721978
       9       -0.000138284444     0.000029017533    -0.000036748201
      10       -0.000017989695     0.000137657672     0.000038181185
      11        0.000075060243    -0.000099644611    -0.000040674613
      12        0.000089917621     0.000010678118     0.000013539054
      13        0.000129394328     0.001863095515    -0.004081365855
      14        0.000187330490    -0.000112113304    -0.000156992158

  **** Optimization is complete! (in 3 steps) ****
    Final optimized geometry and variables:
    Molecular point group: c1

    Geometry (in Angstrom), charge = 0, multiplicity = 1:

    N            2.291320432543     0.418283401457     0.158540968328
    C            0.927004081823     0.163732353331     0.059893946275
    C            0.446989617194    -1.098190815694    -0.314303264048
    C            0.001796710049     1.174903788651     0.351904970309
    C           -0.919771775150    -1.325821793289    -0.432161899291
    C           -1.362434688422     0.929235944162     0.255636442283
    C           -1.835806235790    -0.318337778641    -0.143800422503
    H            1.152241092456    -1.900210640988    -0.519247486230
    H            0.362580594043     2.158777083456     0.640300888753
    H           -1.270434410787    -2.308318266536    -0.735229719071
    H           -2.062790909857     1.727188416597     0.485592361156
    H           -2.902013639076    -0.502766046796    -0.226164013832
    H            2.920304686534    -0.315654499012    -0.124780631257
    H            2.614874943778     0.978739712030     0.929906192772

*** Psi4 exiting successfully. Buy a developer a beer!
