                               Psi4 1.3.2 release

  ==> Input File <==

--------------------------------------------------------------------------
molecule {
0 1
 N    2.291320    0.418283    0.158541
 C    0.927004    0.163732    0.059894
 C    0.446990   -1.098191   -0.314303
 C    0.001797    1.174904    0.351905
 C   -0.919772   -1.325822   -0.432162
 C   -1.362435    0.929236    0.255636
 C   -1.835806   -0.318338   -0.143800
 H    1.152241   -1.900211   -0.519247
 H    0.362581    2.158777    0.640301
 H   -1.270434   -2.308318   -0.735230
 H   -2.062791    1.727188    0.485592
 H   -2.902014   -0.502766   -0.226164
 H    2.920305   -0.315654   -0.124781
 H    2.614875    0.978740    0.929906
}
memory 700MB
set_num_threads(8)
psi4_io.set_default_path("/home/daniele/PSI4_sctatch/Psi4-aniline")
set freeze_core True
E, wfn = energy('wb97x-d/6-311+G*',return_wfn=True)
oeprop(wfn,"WIBERG_LOWDIN_INDICES")
clean()
--------------------------------------------------------------------------

    Molecular point group: c1

    Geometry (in Angstrom), charge = 0, multiplicity = 1:

       Center              X                  Y                   Z               Mass
    ------------   -----------------  -----------------  -----------------  -----------------
         N            2.291320020691     0.418283147873     0.158540972380    14.003074004430
         C            0.927004020691     0.163732147873     0.059893972380    12.000000000000
         C            0.446990020691    -1.098190852127    -0.314303027620    12.000000000000
         C            0.001797020691     1.174904147873     0.351904972380    12.000000000000
         C           -0.919771979309    -1.325821852127    -0.432162027620    12.000000000000
         C           -1.362434979309     0.929236147873     0.255635972380    12.000000000000
         C           -1.835805979309    -0.318337852127    -0.143800027620    12.000000000000
         H            1.152241020691    -1.900210852127    -0.519247027620     1.007825032230
         H            0.362581020691     2.158777147873     0.640300972380     1.007825032230
         H           -1.270433979309    -2.308317852127    -0.735230027620     1.007825032230
         H           -2.062790979309     1.727188147873     0.485591972380     1.007825032230
         H           -2.902013979309    -0.502765852127    -0.226164027620     1.007825032230
         H            2.920305020691    -0.315653852127    -0.124781027620     1.007825032230
         H            2.614875020691     0.978740147873     0.929905972380     1.007825032230

  Charge       = 0
  Multiplicity = 1
  Basis Set: 6-311+G*
    Blend: 6-311+G*
  Basis Set: (6-311+G* AUX)
    Blend: HEAVY-AUG-CC-PVTZ-JKFIT

    Orbital Energies [Eh]
    ---------------------

    Doubly Occupied:

       1A    -14.435839     2A    -10.328636     3A    -10.285622
       4A    -10.285329     5A    -10.280544     6A    -10.279219
       7A    -10.275286     8A     -1.022569     9A     -0.939707
      10A     -0.844475    11A     -0.825413    12A     -0.706709
      13A     -0.693447    14A     -0.618619    15A     -0.604769
      16A     -0.567572    17A     -0.523351    18A     -0.517949
      19A     -0.504655    20A     -0.468220    21A     -0.440459
      22A     -0.424259    23A     -0.391060    24A     -0.327549
      25A     -0.281749

  @DF-RKS Final Energy:  -287.56407467545228

   => Energetics <=

    Nuclear Repulsion Energy =            271.6351735446169755
    One-Electron Energy =                -925.0528782954066855
    Two-Electron Energy =                 394.7530242930009194
    DFT Exchange-Correlation Energy =     -28.8937301992998314
    Empirical Dispersion Energy =          -0.0056640183637179
    VV10 Nonlocal Energy =                  0.0000000000000000
    Total Energy =                       -287.5640746754523320

  Dipole Moment: [D]
     X:     1.2968      Y:    -0.2776      Z:     0.7870     Total:     1.5422

*** Psi4 exiting successfully. Buy a developer a beer!
