                               Psi4 1.3.2 release

  ==> Input File <==

--------------------------------------------------------------------------
molecule {
0 1
 N    2.295784    0.454432    0.213510
 C    0.921063    0.174167    0.057541
 C    0.454929   -1.105705   -0.263659
 C   -0.011800    1.188148    0.295098
 C   -0.908155   -1.350533   -0.398177
 C   -1.375112    0.932629    0.193564
 C   -1.830280   -0.334426   -0.163172
 H    1.172483   -1.908387   -0.415860
 H    0.351376    2.180390    0.546066
 H   -1.251377   -2.346143   -0.665255
 H   -2.086072    1.732698    0.379767
 H   -2.894578   -0.528636   -0.254968
 H    2.912517   -0.056975   -0.399124
 H    2.633335    0.515468    1.162480
}
set optking {
  frozen_dihedral = ("
    3 2 1 13
  ")
}
set {
  geom_maxiter 5
  g_convergence GAU_LOOSE
  dynamic_level 1
}
memory 700MB
set_num_threads(8)
psi4_io.set_default_path("/home/daniele/PSI4_sctatch/Psi4-aniline")
for _ in range(1):
  try:
    set opt_coordinates both
    optimize('wb97x-d/6-31G*')
    break
  except OptimizationConvergenceError:
    break
  else:
    try:
      set opt_coordinates cartesian
      optimize('wb97x-d/6-31G*')
      break
    except OptimizationConvergenceError:
      pass
clean()
--------------------------------------------------------------------------

    Molecular point group: c1
  Charge       = 0
  Multiplicity = 1
  Basis Set: 6-31G*
    Blend: 6-31G*
  Basis Set: (6-31G* AUX)
    Blend: CC-PVDZ-JKFIT
  @DF-RKS Final Energy:  -287.49527766970209
    Total Energy =                       -287.4952776697021477
    Molecular point group: c1
  Basis Set: 6-31G*
    Blend: 6-31G*
  Basis Set: (6-31G* AUX)
    Blend: CC-PVDZ-JKFIT
  Basis Set: 6-31G*
    Blend: 6-31G*
  Basis Set: (6-31G* AUX)
    Blend: CC-PVDZ-JKFIT
  @DF-RKS Final Energy:  -287.49538185712402
    Total Energy =                       -287.4953818571240731
  Basis Set: 6-31G*
    Blend: 6-31G*
  Basis Set: (6-31G* AUX)
    Blend: CC-PVDZ-JKFIT
  Basis Set: 6-31G*
    Blend: 6-31G*
  @DF-RKS Final Energy:  -287.49538184087925
    Total Energy =                       -287.4953818408792472
  Basis Set: (6-31G* AUX)
    Blend: CC-PVDZ-JKFIT
  Basis Set: 6-31G*
    Blend: 6-31G*
  Basis Set: (6-31G* AUX)
    Blend: CC-PVDZ-JKFIT
  @DF-RKS Final Energy:  -287.49547646644294
    Total Energy =                       -287.4954764664429376
  Basis Set: 6-31G*
    Blend: 6-31G*
  Basis Set: (6-31G* AUX)
    Blend: CC-PVDZ-JKFIT
  Charge       = 0
  Multiplicity = 1
  Basis Set: 6-31G*
    Blend: 6-31G*
  Basis Set: (6-31G* AUX)
    Blend: CC-PVDZ-JKFIT

    Orbital Energies [Eh]
    ---------------------

    Doubly Occupied:

       1A    -14.437888     2A    -10.327890     3A    -10.297483
       4A    -10.296073     5A    -10.294254     6A    -10.293648
       7A    -10.289762     8A     -0.999332     9A     -0.931142
      10A     -0.837871    11A     -0.816916    12A     -0.695394
      13A     -0.680147    14A     -0.605025    15A     -0.577797
      16A     -0.553329    17A     -0.528190    18A     -0.506959
      19A     -0.498104    20A     -0.445638    21A     -0.432108
      22A     -0.420191    23A     -0.348440    24A     -0.320698
      25A     -0.295935

  @DF-RKS Final Energy:  -287.49561244595077

   => Energetics <=

    Nuclear Repulsion Energy =            270.9877024982269518
    One-Electron Energy =                -923.9440626779039576
    Two-Electron Energy =                 394.3096655749459956
    DFT Exchange-Correlation Energy =     -28.8432573040479596
    Empirical Dispersion Energy =          -0.0056605371718371
    VV10 Nonlocal Energy =                  0.0000000000000000
    Total Energy =                       -287.4956124459507123

  Dipole Moment: [D]
     X:     0.4802      Y:    -1.1495      Z:     0.4825     Total:     1.3359

    Molecular point group: c1
  Basis Set: 6-31G*
    Blend: 6-31G*
  Basis Set: (6-31G* AUX)
    Blend: CC-PVDZ-JKFIT

  -Total Gradient:
     Atom            X                  Y                   Z
    ------   -----------------  -----------------  -----------------
       1       -0.001478229963    -0.004114710344     0.000510684164
       2        0.000768210203     0.002550173108    -0.007164114628
       3       -0.000409621513    -0.000831394176     0.003832550132
       4       -0.000151960815    -0.000201150352     0.000427059618
       5       -0.000102117434    -0.000040666142    -0.000093179842
       6        0.000022784512     0.000051740885     0.000125769178
       7        0.000030773979    -0.000059940778    -0.000052040750
       8        0.000011346515     0.000014613440     0.000051146593
       9        0.000007084541    -0.000016340013    -0.000031565356
      10       -0.000039277386    -0.000017125082    -0.000010456505
      11       -0.000018922994     0.000022450770    -0.000007919458
      12       -0.000023370956     0.000008057943     0.000002523893
      13       -0.000375794608     0.003176115633    -0.003172715399
      14        0.001662059073    -0.000590081710     0.005515370913

    Molecular point group: c1

    Geometry (in Angstrom), charge = 0, multiplicity = 1:

    N            2.299924176294     0.489520207335     0.216318423574
    C            0.916408117481     0.181323712585     0.056632643622
    C            0.463237637780    -1.103337296822    -0.257466829519
    C           -0.021539755628     1.190257038096     0.284160275521
    C           -0.898324621707    -1.362346024191    -0.384649563309
    C           -1.383377715313     0.925084312410     0.181582454683
    C           -1.827125703148    -0.349954482500    -0.160293254264
    H            1.186850699048    -1.900900011363    -0.410153115342
    H            0.338523767308     2.184622465361     0.529752092622
    H           -1.234422323211    -2.362406764247    -0.643573525484
    H           -2.101392224073     1.720747159338     0.358667124837
    H           -2.889946092593    -0.553531059459    -0.250096164606
    H            2.878288975760    -0.046827295674    -0.419295665998
    H            2.618521195491     0.336049793885     1.163415424694

*** Psi4 exiting successfully. Buy a developer a beer!
