                               Psi4 1.3.2 release

  ==> Input File <==

--------------------------------------------------------------------------
molecule {
0 1
C 1.255271187045 -0.608726981943 0.010578445211
C 1.155255395307 0.782551554024 -0.023146116953
C 0.100657914034 -1.392194699739 0.033736405121
C -0.100452923735 1.392244056034 -0.033737214911
C -1.155284533429 -0.782374081176 0.023141552861
C -1.255471152216 0.608460605490 -0.010572127520
H 2.233618782946 -1.082240453874 0.018791809777
H 2.055151378534 1.392142530155 -0.041171262019
H 0.179144357963 -2.475780678271 0.060006553300
H -0.179677336676 2.475822955162 -0.059996368749
H -2.054738896579 -1.392501759363 0.041170588461
H -2.233211176897 1.083028289229 -0.018812558545
}
memory 700MB
set_num_threads(8)
psi4_io.set_default_path("/home/daniele/PSI4_sctatch/Psi4-benzene_3D")
set maxiter 500
set freeze_core True
set PROPERTIES_ORIGIN ["COM"]
set cubeprop_tasks ['esp']
E, wfn = properties('mp2/aug-cc-pVTZ',properties=['dipole'],return_wfn=True)
cubeprop(wfn)
fchk(wfn, "benzene_3D-esp.fchk")
oeprop(wfn,"GRID_ESP","WIBERG_LOWDIN_INDICES","MULLIKEN_CHARGES")
clean()
--------------------------------------------------------------------------

    Molecular point group: c1
  Charge       = 0
  Multiplicity = 1
  Basis Set: AUG-CC-PVTZ
    Blend: AUG-CC-PVTZ
  Basis Set: (AUG-CC-PVTZ AUX)
    Blend: AUG-CC-PVTZ-JKFIT

    Orbital Energies [Eh]
    ---------------------

    Doubly Occupied:

       1A    -11.237783     2A    -11.237252     3A    -11.237170
       4A    -11.236019     5A    -11.235931     6A    -11.235372
       7A     -1.149351     8A     -1.013994     9A     -1.013841
      10A     -0.823200    11A     -0.822887    12A     -0.707776
      13A     -0.642537    14A     -0.618715    15A     -0.586975
      16A     -0.586885    17A     -0.501870    18A     -0.494591
      19A     -0.493959    20A     -0.336820    21A     -0.336606

  @DF-RHF Final Energy:  -230.78049886460184

   => Energetics <=

    Nuclear Repulsion Energy =            203.3107539991033832
    One-Electron Energy =                -713.0834375769261442
    Two-Electron Energy =                 278.9921847132209223
    Total Energy =                       -230.7804988646018387
  Basis Set: (AUG-CC-PVTZ AUX)
    Blend: AUG-CC-PVTZ-RI
    Molecular point group: c1

    Geometry (in Angstrom), charge = 0, multiplicity = 1:

       Center              X                  Y                   Z               Mass
    ------------   -----------------  -----------------  -----------------  -----------------
         C            1.255271187045    -0.608726981943     0.010578445211    12.000000000000
         C            1.155255395307     0.782551554024    -0.023146116953    12.000000000000
         C            0.100657914034    -1.392194699739     0.033736405121    12.000000000000
         C           -0.100452923735     1.392244056034    -0.033737214911    12.000000000000
         C           -1.155284533429    -0.782374081176     0.023141552861    12.000000000000
         C           -1.255471152216     0.608460605490    -0.010572127520    12.000000000000
         H            2.233618782946    -1.082240453874     0.018791809777     1.007825032230
         H            2.055151378534     1.392142530155    -0.041171262019     1.007825032230
         H            0.179144357963    -2.475780678271     0.060006553300     1.007825032230
         H           -0.179677336676     2.475822955162    -0.059996368749     1.007825032230
         H           -2.054738896579    -1.392501759363     0.041170588461     1.007825032230
         H           -2.233211176897     1.083028289229    -0.018812558545     1.007825032230

  Basis Set: AUG-CC-PVTZ
    Blend: AUG-CC-PVTZ
  Basis Set: (AUG-CC-PVTZ AUX)
    Blend: AUG-CC-PVTZ-JKFIT
	 Reference Energy          =    -230.7804988646018387 [Eh]
	 Singles Energy            =      -0.0000000000000000 [Eh]
	 Same-Spin Energy          =      -0.2400542667179885 [Eh]
	 Opposite-Spin Energy      =      -0.7237581402925807 [Eh]
	 Correlation Energy        =      -0.9638124070105691 [Eh]
	 Total Energy              =    -231.7443112716124176 [Eh]

	 ================> DF-SCS-MP2 Energies <==================
	-----------------------------------------------------------
	 SCS Same-Spin Scale       =       0.3333333333333333 [-]
	 SCS Opposite-Spin Scale   =       1.2000000000000000 [-]
	 SCS Same-Spin Energy      =      -0.0800180889059962 [Eh]
	 SCS Opposite-Spin Energy  =      -0.8685097683510968 [Eh]
	 SCS Correlation Energy    =      -0.9485278572570930 [Eh]
	 SCS Total Energy          =    -231.7290267218589292 [Eh]
	-----------------------------------------------------------

  Dipole Moment: [D]
     X:    -0.0000      Y:     0.0001      Z:    -0.0000     Total:     0.0001

  Basis Set: AUG-CC-PVTZ
    Blend: AUG-CC-PVTZ

  Mulliken Charges: (a.u.)
   Center  Symbol    Alpha    Beta     Spin     Total
       1     C     3.21804  3.21804  0.00000 -0.43609
       2     C     3.21854  3.21854  0.00000 -0.43708
       3     C     3.21911  3.21911  0.00000 -0.43822
       4     C     3.21835  3.21835  0.00000 -0.43671
       5     C     3.21868  3.21868  0.00000 -0.43737
       6     C     3.21822  3.21822  0.00000 -0.43644
       7     H     0.28254  0.28254  0.00000  0.43492
       8     H     0.28186  0.28186  0.00000  0.43629
       9     H     0.27997  0.27997  0.00000  0.44005
      10     H     0.28041  0.28041  0.00000  0.43917
      11     H     0.28221  0.28221  0.00000  0.43557
      12     H     0.28205  0.28205  0.00000  0.43590

   Total alpha = 21.00000, Total beta = 21.00000, Total charge =  0.00000

*** Psi4 exiting successfully. Buy a developer a beer!
