                               Psi4 1.3.2 release

  ==> Input File <==

--------------------------------------------------------------------------
molecule {
0 1
 C    1.214300   -0.603500    0.010600
 C    1.126400    0.772200   -0.022800
 C    0.097400   -1.411500    0.034200
 C   -0.097100    1.406500   -0.034100
 C   -1.124200   -0.772400    0.022800
 C   -1.215100    0.600300   -0.010500
 H    2.204900   -1.078000    0.018800
 H    2.016300    1.394200   -0.041100
 H    0.177000   -2.503200    0.060700
 H   -0.183000    2.496600   -0.060500
 H   -2.019600   -1.395900    0.041100
 H   -2.197300    1.094700   -0.019200
}
set {
  geom_maxiter 400
  g_convergence GAU_LOOSE
  dynamic_level 1
}
memory 700MB
set_num_threads(8)
psi4_io.set_default_path("/home/daniele/PSI4_sctatch/Psi4-benzene_3D")
for _ in range(1):
  try:
    set opt_coordinates both
    optimize('mp2/6-31G*')
    break
  except OptimizationConvergenceError:
    break
  else:
    try:
      set opt_coordinates cartesian
      optimize('mp2/6-31G*')
      break
    except OptimizationConvergenceError:
      pass
clean()
--------------------------------------------------------------------------

    Molecular point group: c1
  Charge       = 0
  Multiplicity = 1
  Basis Set: 6-31G*
    Blend: 6-31G*
  Basis Set: (6-31G* AUX)
    Blend: CC-PVDZ-JKFIT
  @DF-RHF Final Energy:  -230.69846389642180
    Total Energy =                       -230.6984638964217993
  Basis Set: (6-31G* AUX)
    Blend: CC-PVDZ-RI
    Molecular point group: c1
  Basis Set: 6-31G*
    Blend: 6-31G*
  Basis Set: (6-31G* AUX)
    Blend: CC-PVDZ-JKFIT
  Basis Set: (6-31G* AUX)
    Blend: CC-PVDZ-JKFIT
	 Reference Energy          =    -230.6984638964217993 [Eh]
	 Singles Energy            =      -0.0000000000000000 [Eh]
	 Same-Spin Energy          =      -0.2063746449850365 [Eh]
	 Opposite-Spin Energy      =      -0.5773980591214626 [Eh]
	 Correlation Energy        =      -0.7837727041064990 [Eh]
	 Total Energy              =    -231.4822366005282959 [Eh]
	 SCS Total Energy          =    -231.4601331156958963 [Eh]
  @DF-RHF Final Energy:  -230.70138780918774
    Total Energy =                       -230.7013878091877359
  Charge       = 0
  Multiplicity = 1
  Basis Set: 6-31G*
    Blend: 6-31G*
  Basis Set: (6-31G* AUX)
    Blend: CC-PVDZ-JKFIT

    Orbital Energies [Eh]
    ---------------------

    Doubly Occupied:

       1A    -11.234151     2A    -11.233634     3A    -11.233559
       4A    -11.232443     5A    -11.232362     6A    -11.231825
       7A     -1.142350     8A     -1.007641     9A     -1.007486
      10A     -0.816945    11A     -0.816633    12A     -0.701594
      13A     -0.637974    14A     -0.610709    15A     -0.581272
      16A     -0.581182    17A     -0.494428    18A     -0.488677
      19A     -0.488047    20A     -0.329414    21A     -0.329198

  @DF-RHF Final Energy:  -230.70169838197216

   => Energetics <=

    Nuclear Repulsion Energy =            203.3107539990915313
    One-Electron Energy =                -713.1618574870753946
    Two-Electron Energy =                 279.1494051060117272
    Total Energy =                       -230.7016983819721645

  Dipole Moment: [D]
     X:    -0.0000      Y:     0.0002      Z:    -0.0000     Total:     0.0002

  Basis Set: (6-31G* AUX)
    Blend: CC-PVDZ-RI
    Molecular point group: c1
  Basis Set: 6-31G*
    Blend: 6-31G*
  Basis Set: (6-31G* AUX)
    Blend: CC-PVDZ-JKFIT
  Basis Set: (6-31G* AUX)
    Blend: CC-PVDZ-JKFIT
	 Reference Energy          =    -230.7016983819721645 [Eh]
	 Singles Energy            =      -0.0000000000000000 [Eh]
	 Same-Spin Energy          =      -0.2061941571868182 [Eh]
	 Opposite-Spin Energy      =      -0.5785083473877918 [Eh]
	 Correlation Energy        =      -0.7847025045746100 [Eh]
	 Total Energy              =    -231.4864008865467611 [Eh]

	 ================> DF-SCS-MP2 Energies <==================
	-----------------------------------------------------------
	 SCS Same-Spin Scale       =       0.3333333333333333 [-]
	 SCS Opposite-Spin Scale   =       1.2000000000000000 [-]
	 SCS Same-Spin Energy      =      -0.0687313857289394 [Eh]
	 SCS Opposite-Spin Energy  =      -0.6942100168653501 [Eh]
	 SCS Correlation Energy    =      -0.7629414025942896 [Eh]
	 SCS Total Energy          =    -231.4646397845664580 [Eh]
	-----------------------------------------------------------

  -Total Gradient:
     Atom            X                  Y                   Z
    ------   -----------------  -----------------  -----------------
       1        0.000119543307     0.000165298156    -0.000003785623
       2        0.000651745637    -0.000429548161     0.000007787730
       3        0.000422327002    -0.001064671259     0.000023712191
       4       -0.000035587495     0.001163366421    -0.000027785917
       5       -0.000763443990     0.000733915775    -0.000014354479
       6       -0.000507504544    -0.000669924353     0.000017259719
       7       -0.000064001894     0.000090719259    -0.000002222680
       8       -0.000015353147     0.000050952177    -0.000001157428
       9        0.000013338423     0.000181293606    -0.000004088010
      10       -0.000073053647    -0.000153223200     0.000003961200
      11        0.000083377744    -0.000063129816     0.000000856768
      12        0.000168612604    -0.000005048606    -0.000000183473

  **** Optimization is complete! (in 3 steps) ****
    Final optimized geometry and variables:
    Molecular point group: c1

    Geometry (in Angstrom), charge = 0, multiplicity = 1:

    C            1.255271187045    -0.608726981943     0.010578445211
    C            1.155255395307     0.782551554024    -0.023146116953
    C            0.100657914034    -1.392194699739     0.033736405121
    C           -0.100452923735     1.392244056034    -0.033737214911
    C           -1.155284533429    -0.782374081176     0.023141552861
    C           -1.255471152216     0.608460605490    -0.010572127520
    H            2.233618782946    -1.082240453874     0.018791809777
    H            2.055151378534     1.392142530155    -0.041171262019
    H            0.179144357963    -2.475780678271     0.060006553300
    H           -0.179677336676     2.475822955162    -0.059996368749
    H           -2.054738896579    -1.392501759363     0.041170588461
    H           -2.233211176897     1.083028289229    -0.018812558545

*** Psi4 exiting successfully. Buy a developer a beer!
