                               Psi4 1.3.2 release

  ==> Input File <==

--------------------------------------------------------------------------
molecule {
0 1
C 1.255271187045 -0.608726981943 0.010578445211
C 1.155255395307 0.782551554024 -0.023146116953
C 0.100657914034 -1.392194699739 0.033736405121
C -0.100452923735 1.392244056034 -0.033737214911
C -1.155284533429 -0.782374081176 0.023141552861
C -1.255471152216 0.608460605490 -0.010572127520
H 2.233618782946 -1.082240453874 0.018791809777
H 2.055151378534 1.392142530155 -0.041171262019
H 0.179144357963 -2.475780678271 0.060006553300
H -0.179677336676 2.475822955162 -0.059996368749
H -2.054738896579 -1.392501759363 0.041170588461
H -2.233211176897 1.083028289229 -0.018812558545
}
memory 700MB
set_num_threads(8)
psi4_io.set_default_path("/home/daniele/PSI4_sctatch/Psi4-benzene_3D")
set freeze_core True
set PROPERTIES_ORIGIN ["COM"]
set cubeprop_tasks ['esp']
E, wfn = energy('mp2/6-311G**',properties=['dipole'],return_wfn=True)
cubeprop(wfn)
fchk(wfn, "benzene_3D-dma.fchk")
clean()
--------------------------------------------------------------------------

    Molecular point group: c1

    Geometry (in Angstrom), charge = 0, multiplicity = 1:

       Center              X                  Y                   Z               Mass
    ------------   -----------------  -----------------  -----------------  -----------------
         C            1.255271187045    -0.608726981943     0.010578445211    12.000000000000
         C            1.155255395307     0.782551554024    -0.023146116953    12.000000000000
         C            0.100657914034    -1.392194699739     0.033736405121    12.000000000000
         C           -0.100452923735     1.392244056034    -0.033737214911    12.000000000000
         C           -1.155284533429    -0.782374081176     0.023141552861    12.000000000000
         C           -1.255471152216     0.608460605490    -0.010572127520    12.000000000000
         H            2.233618782946    -1.082240453874     0.018791809777     1.007825032230
         H            2.055151378534     1.392142530155    -0.041171262019     1.007825032230
         H            0.179144357963    -2.475780678271     0.060006553300     1.007825032230
         H           -0.179677336676     2.475822955162    -0.059996368749     1.007825032230
         H           -2.054738896579    -1.392501759363     0.041170588461     1.007825032230
         H           -2.233211176897     1.083028289229    -0.018812558545     1.007825032230

  Charge       = 0
  Multiplicity = 1
  Basis Set: 6-311G**
    Blend: 6-311G**
  Basis Set: (6-311G** AUX)
    Blend: CC-PVTZ-JKFIT

    Orbital Energies [Eh]
    ---------------------

    Doubly Occupied:

       1A    -11.235625     2A    -11.235096     3A    -11.235019
       4A    -11.233872     5A    -11.233789     6A    -11.233229
       7A     -1.147628     8A     -1.012430     9A     -1.012275
      10A     -0.821520    11A     -0.821206    12A     -0.706385
      13A     -0.641072    14A     -0.616741    15A     -0.585729
      16A     -0.585640    17A     -0.499422    18A     -0.492902
      19A     -0.492269    20A     -0.334612    21A     -0.334397

  @DF-RHF Final Energy:  -230.75282294747228

   => Energetics <=

    Nuclear Repulsion Energy =            203.3107539991033832
    One-Electron Energy =                -713.1054395320513777
    Two-Electron Energy =                 279.0418625854757124
    Total Energy =                       -230.7528229474722821

  Dipole Moment: [D]
     X:    -0.0000      Y:     0.0002      Z:    -0.0000     Total:     0.0002

  Basis Set: (6-311G** AUX)
    Blend: CC-PVTZ-RI
	 Reference Energy          =    -230.7528229474722821 [Eh]
	 Singles Energy            =      -0.0000000000000000 [Eh]
	 Same-Spin Energy          =      -0.2144622001387844 [Eh]
	 Opposite-Spin Energy      =      -0.6103696112894728 [Eh]
	 Correlation Energy        =      -0.8248318114282571 [Eh]
	 Total Energy              =    -231.5776547589005361 [Eh]

	 ================> DF-SCS-MP2 Energies <==================
	-----------------------------------------------------------
	 SCS Same-Spin Scale       =       0.3333333333333333 [-]
	 SCS Opposite-Spin Scale   =       1.2000000000000000 [-]
	 SCS Same-Spin Energy      =      -0.0714874000462615 [Eh]
	 SCS Opposite-Spin Energy  =      -0.7324435335473672 [Eh]
	 SCS Correlation Energy    =      -0.8039309335936287 [Eh]
	 SCS Total Energy          =    -231.5567538810659016 [Eh]
	-----------------------------------------------------------

  Basis Set: 6-311G**
    Blend: 6-311G**
*** Psi4 exiting successfully. Buy a developer a beer!
